[Molden Format]
[N_Atoms]
 9
[Atoms] (AU)
S1          1     16           0.00000000      0.00000000     -2.17926347
C1          2      6           0.00000000      2.34202222      0.10157674
C1          3      6           0.00000000     -2.34202222      0.10157674
C2          4      6           0.00000000      1.36300442      2.48762088
C2          5      6           0.00000000     -1.36300442      2.48762088
H1          6      1           0.00000000      4.30747580     -0.43559049
H1          7      1           0.00000000     -4.30747580     -0.43559049
H2          8      1           0.00000000      2.50652118      4.17805090
H2          9      1           0.00000000     -2.50652118      4.17805090
[5D]
[Charge] (Mulliken)
 0.00000000000000
 0.00000000000000
 0.00000000000000
 0.00000000000000
 0.00000000000000
 0.00000000000000
 0.00000000000000
 0.00000000000000
 0.00000000000000
[GTO] (AU)
   1
   s  13
  9.341339600E+04  3.024400009E-04
  1.396165700E+04  2.359690007E-03
  3.169909800E+03  1.219093004E-02
  9.024563400E+02  4.837344015E-02
  2.971584200E+02  1.487256904E-01
  1.087020100E+02  3.264560810E-01
  4.315529900E+01  3.989518812E-01
  1.810794800E+01  1.813913105E-01
  5.570471700E+00  3.603423011E-02
  2.142716400E+00  2.477362007E-02
  4.339943000E-01  2.332840007E-03
  1.570169200E-01 -9.991000030E-04
  5.495592000E-02  3.022100009E-04
   s  13
  9.341339600E+04 -9.859999656E-05
  1.396165700E+04 -7.647999733E-04
  3.169909800E+03 -4.015399860E-03
  9.024563400E+02 -1.598899944E-02
  2.971584200E+02 -5.276519816E-02
  1.087020100E+02 -1.273787956E-01
  4.315529900E+01 -2.238092922E-01
  1.810794800E+01 -9.887609655E-02
  5.570471700E+00  5.295235815E-01
  2.142716400E+00  5.869960795E-01
  4.339943000E-01  4.070764858E-02
  1.570169200E-01 -1.468439949E-02
  5.495592000E-02  4.348479848E-03
   s  13
  9.341339600E+04  2.485000009E-05
  1.396165700E+04  1.933100007E-04
  3.169909800E+03  1.013120004E-03
  9.024563400E+02  4.071930015E-03
  2.971584200E+02  1.352557005E-02
  1.087020100E+02  3.398686013E-02
  4.315529900E+01  6.265824023E-02
  1.810794800E+01  3.168168012E-02
  5.570471700E+00 -2.185153008E-01
  2.142716400E+00 -3.910601015E-01
  4.339943000E-01  6.637445225E-01
  1.570169200E-01  5.170704719E-01
  5.495592000E-02  2.044077008E-02
   s  13
  9.341339600E+04 -2.490000090E-05
  1.396165700E+04 -1.975000072E-04
  3.169909800E+03 -1.003000036E-03
  9.024563400E+02 -4.213600153E-03
  2.971584200E+02 -1.321190048E-02
  1.087020100E+02 -3.626240132E-02
  4.315529900E+01 -5.921470215E-02
  1.810794800E+01 -4.256220155E-02
  5.570471700E+00  2.851211704E-01
  2.142716400E+00  3.718777735E-01
  4.339943000E-01 -1.813683066E+00
  1.570169200E-01  1.258146946E+00
  5.495592000E-02  4.015733846E-01
   p  10
  4.950399900E+02  3.118750001E-03
  1.172211900E+02  2.421577001E-02
  3.750655800E+01  1.059524500E-01
  1.390996800E+01  2.827273401E-01
  5.504501500E+00  4.386969902E-01
  2.243281200E+00  3.147313601E-01
  7.761799200E-01  4.594114002E-02
  2.918704700E-01 -4.957200002E-03
  1.028670000E-01  2.484690001E-03
  3.600345000E-02 -6.772000003E-04
   p  10
  4.950399900E+02 -7.998999997E-04
  1.172211900E+02 -6.197899998E-03
  3.750655800E+01 -2.802529999E-02
  1.390996800E+01 -7.609969997E-02
  5.504501500E+00 -1.276894000E-01
  2.243281200E+00 -7.596879997E-02
  7.761799200E-01  2.850671299E-01
  2.918704700E-01  5.509395898E-01
  1.028670000E-01  3.012694699E-01
  3.600345000E-02  4.803267998E-02
   p  10
  4.950399900E+02  6.901800088E-04
  1.172211900E+02  5.604610071E-03
  3.750655800E+01  2.403047031E-02
  1.390996800E+01  7.093891090E-02
  5.504501500E+00  1.027875213E-01
  2.243281200E+00  1.045433813E-01
  7.761799200E-01 -4.699045060E-01
  2.918704700E-01 -4.719365060E-01
  1.028670000E-01  6.846435887E-01
  3.600345000E-02  4.733040660E-01
   d   4
  1.250000000E+00  1.954657303E-01
  5.040000000E-01  5.479528607E-01
  2.030000000E-01  3.803736505E-01
  7.105000000E-02  3.863999005E-02
   d   4
  1.250000000E+00 -4.016739095E-01
  5.040000000E-01 -6.255475148E-01
  2.030000000E-01  9.182836017E-01
  7.105000000E-02  2.476390059E-01
 
   2
   s  10
  5.240635300E+03  9.370599866E-04
  7.822047900E+02  7.228659896E-03
  1.783508300E+02  3.634369948E-02
  5.081594200E+01  1.306288781E-01
  1.682356200E+01  3.188985054E-01
  6.175776000E+00  4.390794037E-01
  2.418049000E+00  2.144773669E-01
  5.119000000E-01  9.529119863E-03
  1.565900000E-01 -2.422299965E-03
  5.480600000E-02  8.592699877E-04
   s  10
  5.240635300E+03 -2.013999970E-04
  7.822047900E+02 -1.591299976E-03
  1.783508300E+02 -7.857899883E-03
  5.081594200E+01 -3.078559954E-02
  1.682356200E+01 -7.776049884E-02
  6.175776000E+00 -1.654797975E-01
  2.418049000E+00 -9.353159860E-02
  5.119000000E-01  5.910679012E-01
  1.565900000E-01  5.101798424E-01
  5.480600000E-02  3.602094946E-02
   s  10
  5.240635300E+03  1.894800270E-04
  7.822047900E+02  1.599170228E-03
  1.783508300E+02  7.158711020E-03
  5.081594200E+01  3.255102464E-02
  1.682356200E+01  6.671215950E-02
  6.175776000E+00  2.107147000E-01
  2.418049000E+00  1.606341229E-02
  5.119000000E-01 -1.206081172E+00
  1.565900000E-01  6.235919888E-01
  5.480600000E-02  6.755538762E-01
   p   6
  1.884180000E+01  1.363248000E-02
  4.159240000E+00  8.381052999E-02
  1.206710000E+00  2.857919499E-01
  3.855400000E-01  4.864161999E-01
  1.219400000E-01  3.147641699E-01
  4.267900000E-02  9.093436998E-02
   p   6
  1.884180000E+01 -1.270119972E-02
  4.159240000E+00 -6.726639849E-02
  1.206710000E+00 -3.404230924E-01
  3.855400000E-01 -3.747774916E-01
  1.219400000E-01  4.228405505E-01
  4.267900000E-02  6.428391056E-01
   d   3
  1.283800000E+00  3.208788489E-01
  3.440000000E-01  7.233137275E-01
  9.220000000E-02  1.572138094E-01
 
   3
   s  10
  5.240635300E+03  9.370599866E-04
  7.822047900E+02  7.228659896E-03
  1.783508300E+02  3.634369948E-02
  5.081594200E+01  1.306288781E-01
  1.682356200E+01  3.188985054E-01
  6.175776000E+00  4.390794037E-01
  2.418049000E+00  2.144773669E-01
  5.119000000E-01  9.529119863E-03
  1.565900000E-01 -2.422299965E-03
  5.480600000E-02  8.592699877E-04
   s  10
  5.240635300E+03 -2.013999970E-04
  7.822047900E+02 -1.591299976E-03
  1.783508300E+02 -7.857899883E-03
  5.081594200E+01 -3.078559954E-02
  1.682356200E+01 -7.776049884E-02
  6.175776000E+00 -1.654797975E-01
  2.418049000E+00 -9.353159860E-02
  5.119000000E-01  5.910679012E-01
  1.565900000E-01  5.101798424E-01
  5.480600000E-02  3.602094946E-02
   s  10
  5.240635300E+03  1.894800270E-04
  7.822047900E+02  1.599170228E-03
  1.783508300E+02  7.158711020E-03
  5.081594200E+01  3.255102464E-02
  1.682356200E+01  6.671215950E-02
  6.175776000E+00  2.107147000E-01
  2.418049000E+00  1.606341229E-02
  5.119000000E-01 -1.206081172E+00
  1.565900000E-01  6.235919888E-01
  5.480600000E-02  6.755538762E-01
   p   6
  1.884180000E+01  1.363248000E-02
  4.159240000E+00  8.381052999E-02
  1.206710000E+00  2.857919499E-01
  3.855400000E-01  4.864161999E-01
  1.219400000E-01  3.147641699E-01
  4.267900000E-02  9.093436998E-02
   p   6
  1.884180000E+01 -1.270119972E-02
  4.159240000E+00 -6.726639849E-02
  1.206710000E+00 -3.404230924E-01
  3.855400000E-01 -3.747774916E-01
  1.219400000E-01  4.228405505E-01
  4.267900000E-02  6.428391056E-01
   d   3
  1.283800000E+00  3.208788489E-01
  3.440000000E-01  7.233137275E-01
  9.220000000E-02  1.572138094E-01
 
   4
   s  10
  5.240635300E+03  9.370599866E-04
  7.822047900E+02  7.228659896E-03
  1.783508300E+02  3.634369948E-02
  5.081594200E+01  1.306288781E-01
  1.682356200E+01  3.188985054E-01
  6.175776000E+00  4.390794037E-01
  2.418049000E+00  2.144773669E-01
  5.119000000E-01  9.529119863E-03
  1.565900000E-01 -2.422299965E-03
  5.480600000E-02  8.592699877E-04
   s  10
  5.240635300E+03 -2.013999970E-04
  7.822047900E+02 -1.591299976E-03
  1.783508300E+02 -7.857899883E-03
  5.081594200E+01 -3.078559954E-02
  1.682356200E+01 -7.776049884E-02
  6.175776000E+00 -1.654797975E-01
  2.418049000E+00 -9.353159860E-02
  5.119000000E-01  5.910679012E-01
  1.565900000E-01  5.101798424E-01
  5.480600000E-02  3.602094946E-02
   s  10
  5.240635300E+03  1.894800270E-04
  7.822047900E+02  1.599170228E-03
  1.783508300E+02  7.158711020E-03
  5.081594200E+01  3.255102464E-02
  1.682356200E+01  6.671215950E-02
  6.175776000E+00  2.107147000E-01
  2.418049000E+00  1.606341229E-02
  5.119000000E-01 -1.206081172E+00
  1.565900000E-01  6.235919888E-01
  5.480600000E-02  6.755538762E-01
   p   6
  1.884180000E+01  1.363248000E-02
  4.159240000E+00  8.381052999E-02
  1.206710000E+00  2.857919499E-01
  3.855400000E-01  4.864161999E-01
  1.219400000E-01  3.147641699E-01
  4.267900000E-02  9.093436998E-02
   p   6
  1.884180000E+01 -1.270119972E-02
  4.159240000E+00 -6.726639849E-02
  1.206710000E+00 -3.404230924E-01
  3.855400000E-01 -3.747774916E-01
  1.219400000E-01  4.228405505E-01
  4.267900000E-02  6.428391056E-01
   d   3
  1.283800000E+00  3.208788489E-01
  3.440000000E-01  7.233137275E-01
  9.220000000E-02  1.572138094E-01
 
   5
   s  10
  5.240635300E+03  9.370599866E-04
  7.822047900E+02  7.228659896E-03
  1.783508300E+02  3.634369948E-02
  5.081594200E+01  1.306288781E-01
  1.682356200E+01  3.188985054E-01
  6.175776000E+00  4.390794037E-01
  2.418049000E+00  2.144773669E-01
  5.119000000E-01  9.529119863E-03
  1.565900000E-01 -2.422299965E-03
  5.480600000E-02  8.592699877E-04
   s  10
  5.240635300E+03 -2.013999970E-04
  7.822047900E+02 -1.591299976E-03
  1.783508300E+02 -7.857899883E-03
  5.081594200E+01 -3.078559954E-02
  1.682356200E+01 -7.776049884E-02
  6.175776000E+00 -1.654797975E-01
  2.418049000E+00 -9.353159860E-02
  5.119000000E-01  5.910679012E-01
  1.565900000E-01  5.101798424E-01
  5.480600000E-02  3.602094946E-02
   s  10
  5.240635300E+03  1.894800270E-04
  7.822047900E+02  1.599170228E-03
  1.783508300E+02  7.158711020E-03
  5.081594200E+01  3.255102464E-02
  1.682356200E+01  6.671215950E-02
  6.175776000E+00  2.107147000E-01
  2.418049000E+00  1.606341229E-02
  5.119000000E-01 -1.206081172E+00
  1.565900000E-01  6.235919888E-01
  5.480600000E-02  6.755538762E-01
   p   6
  1.884180000E+01  1.363248000E-02
  4.159240000E+00  8.381052999E-02
  1.206710000E+00  2.857919499E-01
  3.855400000E-01  4.864161999E-01
  1.219400000E-01  3.147641699E-01
  4.267900000E-02  9.093436998E-02
   p   6
  1.884180000E+01 -1.270119972E-02
  4.159240000E+00 -6.726639849E-02
  1.206710000E+00 -3.404230924E-01
  3.855400000E-01 -3.747774916E-01
  1.219400000E-01  4.228405505E-01
  4.267900000E-02  6.428391056E-01
   d   3
  1.283800000E+00  3.208788489E-01
  3.440000000E-01  7.233137275E-01
  9.220000000E-02  1.572138094E-01
 
   6
   s   7
  8.263637400E+01  2.564129993E-03
  1.240955800E+01  1.921260995E-02
  2.823854000E+00  9.505117973E-02
  7.976700000E-01  3.018678192E-01
  2.580530000E-01  4.874459186E-01
  8.989100000E-02  2.354794293E-01
  3.146200000E-02  1.577775996E-02
   s   7
  8.263637400E+01 -4.600800043E-03
  1.240955800E+01 -3.244470030E-02
  2.823854000E+00 -1.710737016E-01
  7.976700000E-01 -5.048672047E-01
  2.580530000E-01 -9.489200089E-02
  8.989100000E-02  3.708555135E-01
  3.146200000E-02  6.556513461E-01
 
   7
   s   7
  8.263637400E+01  2.564129993E-03
  1.240955800E+01  1.921260995E-02
  2.823854000E+00  9.505117973E-02
  7.976700000E-01  3.018678192E-01
  2.580530000E-01  4.874459186E-01
  8.989100000E-02  2.354794293E-01
  3.146200000E-02  1.577775996E-02
   s   7
  8.263637400E+01 -4.600800043E-03
  1.240955800E+01 -3.244470030E-02
  2.823854000E+00 -1.710737016E-01
  7.976700000E-01 -5.048672047E-01
  2.580530000E-01 -9.489200089E-02
  8.989100000E-02  3.708555135E-01
  3.146200000E-02  6.556513461E-01
 
   8
   s   7
  8.263637400E+01  2.564129993E-03
  1.240955800E+01  1.921260995E-02
  2.823854000E+00  9.505117973E-02
  7.976700000E-01  3.018678192E-01
  2.580530000E-01  4.874459186E-01
  8.989100000E-02  2.354794293E-01
  3.146200000E-02  1.577775996E-02
   s   7
  8.263637400E+01 -4.600800043E-03
  1.240955800E+01 -3.244470030E-02
  2.823854000E+00 -1.710737016E-01
  7.976700000E-01 -5.048672047E-01
  2.580530000E-01 -9.489200089E-02
  8.989100000E-02  3.708555135E-01
  3.146200000E-02  6.556513461E-01
 
   9
   s   7
  8.263637400E+01  2.564129993E-03
  1.240955800E+01  1.921260995E-02
  2.823854000E+00  9.505117973E-02
  7.976700000E-01  3.018678192E-01
  2.580530000E-01  4.874459186E-01
  8.989100000E-02  2.354794293E-01
  3.146200000E-02  1.577775996E-02
   s   7
  8.263637400E+01 -4.600800043E-03
  1.240955800E+01 -3.244470030E-02
  2.823854000E+00 -1.710737016E-01
  7.976700000E-01 -5.048672047E-01
  2.580530000E-01 -9.489200089E-02
  8.989100000E-02  3.708555135E-01
  3.146200000E-02  6.556513461E-01
 
[MO]
Sym=     1a1 
Ene=   -92.0050
Spin= Alpha
Occup=    2.00000
   1         0.99999696
   2         0.00000200
   3         0.00000092
   4         0.00000000
   5         0.00000000
   6         0.00000000
   7         0.00000043
   8         0.00000000
   9         0.00000000
  10         0.00000033
  11         0.00000000
  12         0.00000000
  13         0.00000000
  14         0.00000000
  15         0.00000000
  16         0.00000000
  17        -0.00000000
  18         0.00000000
  19        -0.00000000
  20         0.00000000
  21         0.00000000
  22         0.00000000
  23         0.00000000
  24        -0.00000157
  25         0.00005228
  26        -0.00000000
  27         0.00000000
  28        -0.00005086
  29        -0.00004940
  30         0.00000000
  31        -0.00000000
  32         0.00000000
  33         0.00000000
  34         0.00000000
  35        -0.00000000
  36        -0.00000000
  37         0.00000000
  38        -0.00000157
  39         0.00005228
  40        -0.00000000
  41         0.00000000
  42         0.00005086
  43        -0.00004940
  44         0.00000000
  45         0.00000000
  46         0.00000000
  47         0.00000000
  48         0.00000000
  49         0.00000000
  50        -0.00000000
  51         0.00000000
  52         0.00000092
  53         0.00000846
  54        -0.00000000
  55         0.00000000
  56        -0.00000598
  57        -0.00002029
  58         0.00000000
  59        -0.00000000
  60        -0.00000000
  61        -0.00000000
  62         0.00000000
  63        -0.00000000
  64         0.00000000
  65         0.00000000
  66         0.00000092
  67         0.00000846
  68        -0.00000000
  69         0.00000000
  70         0.00000598
  71        -0.00002029
  72         0.00000000
  73         0.00000000
  74        -0.00000000
  75        -0.00000000
  76         0.00000000
  77         0.00000000
  78         0.00000000
  79         0.00000000
  80         0.00000897
  81         0.00000000
  82         0.00000897
  83         0.00000000
  84         0.00000116
  85        -0.00000000
  86         0.00000116
  87        -0.00000000
Sym=     2a1 
Ene=   -11.3700
Spin= Alpha
Occup=    2.00000
   1        -0.00005554
   2         0.00116216
   3         0.00219552
   4         0.00000000
   5         0.00000000
   6         0.00000000
   7         0.00041727
   8         0.00000000
   9         0.00000000
  10         0.00225566
  11         0.00000000
  12         0.00000000
  13         0.00000000
  14         0.00000000
  15         0.00000000
  16         0.00000000
  17        -0.00000000
  18         0.00000000
  19        -0.00000000
  20         0.00000000
  21         0.00000000
  22         0.00000000
  23         0.00000000
  24         0.40216663
  25         0.00270499
  26        -0.00000000
  27         0.00000000
  28        -0.00164520
  29         0.00231360
  30         0.00000000
  31        -0.00000000
  32        -0.00000000
  33        -0.00000000
  34         0.00000000
  35        -0.00000000
  36         0.00000000
  37         0.00000000
  38         0.40216663
  39         0.00270499
  40        -0.00000000
  41         0.00000000
  42         0.00164520
  43         0.00231360
  44         0.00000000
  45         0.00000000
  46        -0.00000000
  47        -0.00000000
  48         0.00000000
  49         0.00000000
  50         0.00000000
  51         0.00000000
  52         0.57988737
  53         0.00366925
  54         0.00000000
  55         0.00000000
  56        -0.00168974
  57        -0.00164819
  58         0.00000000
  59         0.00000000
  60         0.00000000
  61         0.00000000
  62         0.00000000
  63        -0.00000000
  64        -0.00000000
  65         0.00000000
  66         0.57988737
  67         0.00366925
  68         0.00000000
  69         0.00000000
  70         0.00168974
  71        -0.00164819
  72         0.00000000
  73        -0.00000000
  74         0.00000000
  75         0.00000000
  76         0.00000000
  77         0.00000000
  78        -0.00000000
  79         0.00000000
  80         0.00179831
  81         0.00000000
  82         0.00179831
  83         0.00000000
  84         0.00261946
  85        -0.00000000
  86         0.00261946
  87        -0.00000000
Sym=     3a1 
Ene=   -11.3570
Spin= Alpha
Occup=    2.00000
   1         0.00001156
   2        -0.00008249
   3        -0.00220536
   4         0.00000000
   5         0.00000000
   6         0.00000000
   7        -0.00008607
   8         0.00000000
   9         0.00000000
  10        -0.00148332
  11         0.00000000
  12         0.00000000
  13        -0.00000000
  14        -0.00000000
  15         0.00000000
  16         0.00000000
  17         0.00000000
  18         0.00000000
  19         0.00000000
  20         0.00000000
  21         0.00000000
  22        -0.00000000
  23         0.00000000
  24        -0.58052613
  25         0.00109325
  26        -0.00000000
  27         0.00000000
  28        -0.00043729
  29         0.00157215
  30         0.00000000
  31         0.00000000
  32        -0.00000000
  33        -0.00000000
  34         0.00000000
  35         0.00000000
  36         0.00000000
  37         0.00000000
  38        -0.58052613
  39         0.00109325
  40        -0.00000000
  41         0.00000000
  42         0.00043729
  43         0.00157215
  44         0.00000000
  45        -0.00000000
  46        -0.00000000
  47        -0.00000000
  48         0.00000000
  49        -0.00000000
  50         0.00000000
  51         0.00000000
  52         0.40259237
  53        -0.00089423
  54         0.00000000
  55         0.00000000
  56        -0.00169580
  57         0.00229417
  58         0.00000000
  59         0.00000000
  60        -0.00000000
  61         0.00000000
  62         0.00000000
  63         0.00000000
  64        -0.00000000
  65         0.00000000
  66         0.40259237
  67        -0.00089423
  68         0.00000000
  69         0.00000000
  70         0.00169580
  71         0.00229417
  72         0.00000000
  73        -0.00000000
  74        -0.00000000
  75         0.00000000
  76         0.00000000
  77        -0.00000000
  78        -0.00000000
  79         0.00000000
  80        -0.00192530
  81        -0.00000000
  82        -0.00192530
  83        -0.00000000
  84         0.00132774
  85         0.00000000
  86         0.00132774
  87         0.00000000
Sym=     4a1 
Ene=    -9.0155
Spin= Alpha
Occup=    2.00000
   1        -0.00022741
   2         0.99868269
   3         0.00070657
   4        -0.00000000
   5         0.00000000
   6         0.00000000
   7         0.00106567
   8         0.00000000
   9         0.00000000
  10         0.00024898
  11         0.00000000
  12         0.00000000
  13         0.00000000
  14         0.00000000
  15         0.00000000
  16         0.00000000
  17        -0.00000000
  18         0.00000000
  19        -0.00000000
  20         0.00000000
  21         0.00000000
  22         0.00000000
  23         0.00000000
  24        -0.00106094
  25         0.00381105
  26         0.00000000
  27         0.00000000
  28        -0.00336472
  29        -0.00317277
  30         0.00000000
  31         0.00000000
  32         0.00000000
  33         0.00000000
  34         0.00000000
  35        -0.00000000
  36        -0.00000000
  37         0.00000000
  38        -0.00106094
  39         0.00381105
  40         0.00000000
  41         0.00000000
  42         0.00336472
  43        -0.00317277
  44         0.00000000
  45        -0.00000000
  46         0.00000000
  47         0.00000000
  48         0.00000000
  49         0.00000000
  50        -0.00000000
  51         0.00000000
  52        -0.00103409
  53         0.00078835
  54        -0.00000000
  55         0.00000000
  56        -0.00046845
  57        -0.00146656
  58         0.00000000
  59        -0.00000000
  60        -0.00000000
  61        -0.00000000
  62         0.00000000
  63        -0.00000000
  64         0.00000000
  65         0.00000000
  66        -0.00103409
  67         0.00078835
  68        -0.00000000
  69         0.00000000
  70         0.00046845
  71        -0.00146656
  72         0.00000000
  73         0.00000000
  74        -0.00000000
  75        -0.00000000
  76         0.00000000
  77         0.00000000
  78         0.00000000
  79         0.00000000
  80         0.00068876
  81        -0.00000000
  82         0.00068876
  83        -0.00000000
  84         0.00006853
  85         0.00000000
  86         0.00006853
  87         0.00000000
Sym=     5a1 
Ene=    -6.6837
Spin= Alpha
Occup=    2.00000
   1        -0.00009274
   2        -0.00203080
   3         0.00043537
   4        -0.00000000
   5         0.00000000
   6         0.00000000
   7         0.99980588
   8         0.00000000
   9         0.00000000
  10         0.00018318
  11         0.00000000
  12         0.00000000
  13        -0.00000000
  14         0.00000000
  15         0.00000000
  16         0.00000000
  17        -0.00000000
  18         0.00000000
  19        -0.00000000
  20         0.00000000
  21         0.00000000
  22        -0.00000000
  23         0.00000000
  24        -0.00058765
  25         0.00197841
  26         0.00000000
  27         0.00000000
  28        -0.00173614
  29        -0.00067648
  30         0.00000000
  31        -0.00000000
  32         0.00000000
  33         0.00000000
  34         0.00000000
  35        -0.00000000
  36        -0.00000000
  37         0.00000000
  38        -0.00058765
  39         0.00197841
  40         0.00000000
  41         0.00000000
  42         0.00173614
  43        -0.00067648
  44         0.00000000
  45         0.00000000
  46         0.00000000
  47         0.00000000
  48         0.00000000
  49         0.00000000
  50        -0.00000000
  51         0.00000000
  52        -0.00059125
  53         0.00069636
  54        -0.00000000
  55         0.00000000
  56        -0.00030045
  57        -0.00071977
  58         0.00000000
  59        -0.00000000
  60         0.00000000
  61        -0.00000000
  62         0.00000000
  63        -0.00000000
  64         0.00000000
  65         0.00000000
  66        -0.00059125
  67         0.00069636
  68        -0.00000000
  69         0.00000000
  70         0.00030045
  71        -0.00071977
  72         0.00000000
  73         0.00000000
  74         0.00000000
  75        -0.00000000
  76         0.00000000
  77         0.00000000
  78         0.00000000
  79         0.00000000
  80         0.00020180
  81         0.00000000
  82         0.00020180
  83         0.00000000
  84         0.00006966
  85        -0.00000000
  86         0.00006966
  87        -0.00000000
Sym=     6a1 
Ene=    -1.8392
Spin= Alpha
Occup=    2.00000
   1        -0.00572475
   2        -0.04366729
   3         0.22934343
   4        -0.00000000
   5         0.00000000
   6         0.00000000
   7        -0.01923301
   8         0.00000000
   9         0.00000000
  10         0.10113378
  11         0.00000000
  12         0.00000000
  13         0.00000000
  14        -0.00000000
  15         0.00000000
  16         0.00000000
  17         0.00000000
  18         0.00000000
  19         0.00000000
  20         0.00000000
  21         0.00000000
  22        -0.00000000
  23         0.00000000
  24        -0.04563502
  25         0.23678109
  26        -0.00000000
  27         0.00000000
  28        -0.07948231
  29         0.03268347
  30         0.00000000
  31         0.00000000
  32        -0.00000000
  33        -0.00000000
  34         0.00000000
  35         0.00000000
  36        -0.00000000
  37         0.00000000
  38        -0.04563502
  39         0.23678109
  40        -0.00000000
  41         0.00000000
  42         0.07948231
  43         0.03268347
  44         0.00000000
  45        -0.00000000
  46        -0.00000000
  47        -0.00000000
  48         0.00000000
  49        -0.00000000
  50        -0.00000000
  51         0.00000000
  52        -0.05398831
  53         0.26383024
  54         0.00000000
  55         0.00000000
  56        -0.05097452
  57        -0.06425337
  58         0.00000000
  59         0.00000000
  60        -0.00000000
  61        -0.00000000
  62         0.00000000
  63         0.00000000
  64         0.00000000
  65         0.00000000
  66        -0.05398831
  67         0.26383024
  68         0.00000000
  69         0.00000000
  70         0.05097452
  71        -0.06425337
  72         0.00000000
  73        -0.00000000
  74        -0.00000000
  75        -0.00000000
  76         0.00000000
  77        -0.00000000
  78         0.00000000
  79         0.00000000
  80         0.06902013
  81        -0.00000000
  82         0.06902013
  83        -0.00000000
  84         0.08171495
  85         0.00000000
  86         0.08171495
  87         0.00000000
Sym=     7a1 
Ene=    -1.2750
Spin= Alpha
Occup=    2.00000
   1         0.00652063
   2         0.04510267
   3        -0.41849126
   4        -0.00000000
   5         0.00000000
   6         0.00000000
   7         0.01091381
   8         0.00000000
   9         0.00000000
  10        -0.02028094
  11         0.00000000
  12         0.00000000
  13        -0.00000000
  14         0.00000000
  15         0.00000000
  16         0.00000000
  17        -0.00000000
  18         0.00000000
  19        -0.00000000
  20         0.00000000
  21         0.00000000
  22         0.00000000
  23         0.00000000
  24         0.01884711
  25        -0.12650082
  26         0.00000000
  27         0.00000000
  28         0.03080576
  29         0.15907710
  30         0.00000000
  31         0.00000000
  32         0.00000000
  33         0.00000000
  34         0.00000000
  35         0.00000000
  36        -0.00000000
  37         0.00000000
  38         0.01884711
  39        -0.12650082
  40         0.00000000
  41         0.00000000
  42        -0.03080576
  43         0.15907710
  44         0.00000000
  45        -0.00000000
  46         0.00000000
  47         0.00000000
  48         0.00000000
  49        -0.00000000
  50        -0.00000000
  51         0.00000000
  52        -0.03630283
  53         0.24899729
  54        -0.00000000
  55         0.00000000
  56        -0.03560541
  57         0.15206185
  58         0.00000000
  59        -0.00000000
  60        -0.00000000
  61        -0.00000000
  62         0.00000000
  63        -0.00000000
  64         0.00000000
  65         0.00000000
  66        -0.03630283
  67         0.24899729
  68        -0.00000000
  69         0.00000000
  70         0.03560541
  71         0.15206185
  72         0.00000000
  73         0.00000000
  74        -0.00000000
  75        -0.00000000
  76         0.00000000
  77         0.00000000
  78         0.00000000
  79         0.00000000
  80        -0.06422632
  81        -0.00000000
  82        -0.06422632
  83        -0.00000000
  84         0.17146716
  85         0.00000000
  86         0.17146716
  87         0.00000000
Sym=     8a1 
Ene=    -0.9011
Spin= Alpha
Occup=    2.00000
   1         0.00328304
   2         0.02078302
   3        -0.26027435
   4        -0.00000000
   5         0.00000000
   6         0.00000000
   7         0.00886180
   8         0.00000000
   9         0.00000000
  10        -0.01202189
  11         0.00000000
  12         0.00000000
  13         0.00000000
  14        -0.00000000
  15         0.00000000
  16         0.00000000
  17        -0.00000000
  18         0.00000000
  19        -0.00000000
  20         0.00000000
  21         0.00000000
  22        -0.00000000
  23         0.00000000
  24        -0.01707200
  25         0.21509533
  26        -0.00000000
  27         0.00000000
  28         0.27832600
  29         0.03325410
  30         0.00000000
  31        -0.00000000
  32         0.00000000
  33        -0.00000000
  34         0.00000000
  35        -0.00000000
  36         0.00000000
  37         0.00000000
  38        -0.01707200
  39         0.21509533
  40        -0.00000000
  41         0.00000000
  42        -0.27832600
  43         0.03325410
  44         0.00000000
  45         0.00000000
  46         0.00000000
  47        -0.00000000
  48         0.00000000
  49         0.00000000
  50         0.00000000
  51         0.00000000
  52         0.01223327
  53        -0.04025039
  54        -0.00000000
  55         0.00000000
  56         0.20261939
  57        -0.01745596
  58         0.00000000
  59         0.00000000
  60         0.00000000
  61        -0.00000000
  62         0.00000000
  63        -0.00000000
  64        -0.00000000
  65         0.00000000
  66         0.01223327
  67        -0.04025039
  68        -0.00000000
  69         0.00000000
  70        -0.20261939
  71        -0.01745596
  72         0.00000000
  73        -0.00000000
  74         0.00000000
  75        -0.00000000
  76         0.00000000
  77         0.00000000
  78        -0.00000000
  79         0.00000000
  80         0.28987117
  81         0.00000000
  82         0.28987117
  83         0.00000000
  84         0.05151756
  85        -0.00000000
  86         0.05151756
  87        -0.00000000
Sym=     9a1 
Ene=    -0.7651
Spin= Alpha
Occup=    2.00000