   This run of MOLCAS is using the pymolcas driver

                             OPE
                             OPE          NMOL  CASOP  ENMOLC A   SO
                 OPE        NMOLC        AS  OP EN  MO LC     AS  OP
                OPENM       OL CA        SO  PE NM  OL CA     SOP EN
                OP EN      MO   LC       AS  OP ENMOL  CASO   PENMOL
                OP  EN     MO   LC       AS  OP EN     MO     LC ASO
               OP   E  NMOL  C  AS       OP  EN MO     LC     AS  OP
               OP  E   NMO   LC AS        OPEN  MO     LCASOP EN   M
               O  PEN   MO  LCA  SO
            OPE   NMO   L   CAS    OP
        OPENMOL  CASOP     ENMOL   CASOPE
     OPENMOLCA   SOPENMOLCASOPEN   MOLCASOPE
    OPENMOLCAS   OP           EN   MOL    CAS
    OPENMOLCAS       OP  ENM        O     LCA
    OPENMOLCAS    OPEN  MOLCASO     P  E  NMO
    OPENMOLCAS     OP               E  N  MOL
    OPENMOLCA   SO           PENM   O  L  CAS    OPEN    MO    LCAS
    OPENMOLCA   SOP           ENM   O  L  CAS   OP  EN  MOLC  AS   O
    OPENMOLCA   SOPE           NM      O  LCA   S      OP  EN MO
    OPENMOLC                AS         O  PEN   M      OL  CA  SOPE
    OPENMO        LCASOPE  NMOL        C  ASO   P      ENMOLC     AS
    OPE     NMO      LCA  SO     P     E   NM   OL  CA SO  PE N   MO
          OPENMOLCA            SOPE   NMO        LCAS  O    P  ENMO
     OPENMOLCASOPENMOLCASOPENMOLCASOPENMOLCA
        OPENMOLCASOPENMOLCASOPENMOLCASOPE
            OPENMOLCASOPENMOLCASOPENM
               OPENMOLCASOPENMOLCA        version: v25.02 ?
                   OPENMOLCASO
                       OPE                tag:

 OpenMolcas is free software; you can redistribute it and/or modify it
 under the terms of the GNU Lesser General Public License version 2.1.
 OpenMolcas is distributed in the hope that it will be useful, but it
 is provided "as is" and without any express or implied warranties.
 For more details see the full text of the license in the file
 LICENSE or in <http://www.gnu.org/licenses/>.

                 Copyright (C) The OpenMolcas Authors
           For the author list and the recommended citation,
                   consult the file CONTRIBUTORS.md

           *************************************************
           * pymolcas version py2.29                       *
           *   build c0481229b6f3f65ed2c83878be511d3d      *
           *   (after the EMIL interpreter by V. Veryazov) *
           *************************************************

configuration info
------------------
Host name: bcb11747ffd6 (Linux)
C Compiler ID: IntelLLVM
C flags: -std=gnu99 -qopenmp
Fortran Compiler ID: IntelLLVM
Fortran flags: -standard-semantics -fltconsistency -fpp -i8 -heap-arrays -qopenmp
Definitions: _MOLCAS_;_I8_;_LINUX_;_MOLCAS_MPP_;_SCALAPACK_;_GA_
Parallel: ON (GA=ON)


   ------------------------------------------------------------------------
  |
  |           Project: thipehene-excited
  |    Submitted from: /home/charlie/input_examples/molcas/thiphene-excited
  |      Scratch area: /tmp/thipehene-excited
  |   Save outputs to: /home/charlie/input_examples/molcas/thiphene-excited
  |            Molcas: /apps/openmolcas
  |
  | Scratch area is empty (for the master process)
  |
  |    MOLCAS_DRIVER = /apps/openmolcas/pymolcas
  |    MOLCAS_NPROCS = 10
  |    MOLCAS_SOURCE = /apps/openmolcas
  | MOLCAS_STRUCTURE = 0
  |
   ------------------------------------------------------------------------

++ ---------   Input file   ---------

&GATEWAY
 Title=Thiophene molecule
  Symmetry= X XY
  Basis set
  S.ANO-S...4s3p2d.
  S1              .0000000000         .0000000000       -2.1793919255
  End of basis
  Basis set
  C.ANO-S...3s2p1d.
  C1              .0000000000        2.3420838459         .1014908659
  C2              .0000000000        1.3629012233        2.4874875281
  End of basis
  Basis set
  H.ANO-S...2s.
  H1              .0000000000        4.3076765963        -.4350463731
  H2              .0000000000        2.5065969281        4.1778544652
  End of basis

>>> DO WHILE

  &SEWARD

  >>> IF (ITER == 1)

    &SCF
     TITLE=Thiophene molecule
      OCCUPIED= 11 1 7 3
      ITERATIONS= 40

  >>> END IF

  &RASSCF
   TITLE=Thiophene molecule 1 1A1
    SYMMETRY=1
   SPIN=1
   NACTEL= 6    0    0
    INACTIVE= 11    0    7    1
    RAS2    =  0    2    0    3
    ITER= 50,25

  &ALASKA

  &SLAPAF
  End of Input

>>> END DO

-- ----------------------------------

--- Start Module: gateway at Fri Dec  5 01:03:33 2025 ---
 
()()()()()()()()()()()()()()()()()()()()()()()()()()()()()()()()()()()()()()()()()()()()()()()()()()

                                              &GATEWAY

             launched 10 MPI processes, running in PARALLEL mode (work-sharing enabled)
                       available to each process: 2.0 GB of memory, 1 thread
                                        master pid: 3072283
()()()()()()()()()()()()()()()()()()()()()()()()()()()()()()()()()()()()()()()()()()()()()()()()()()
 
 
 Title:
                                       Thiophene molecule                               
 
 
++    Symmetry information:
      ---------------------
 
                    --- Group Generators ---
                    Reflection in the yz-plane  
                    Rotation around the z-axis  
 
                    Character Table for C2v
 
                             E   s(yz) C2(z) s(xz)
                    a1       1     1     1     1  z
                    a2       1    -1     1    -1  xy, Rz, I
                    b2       1     1    -1    -1  y, yz, Rx
                    b1       1    -1    -1     1  x, xz, Ry
--
 
 
++    Basis set information:
      ----------------------
 
 
      Basis set label: S.ANO-S...4S3P2D......
 
      Electronic valence basis set:
      ------------------
      Associated Effective Charge  16.000000 au
      Associated Actual Charge     16.000000 au
      Nuclear Model: Point charge
 
      Shell  nPrim  nBasis  Cartesian Spherical Contaminant
         s      13       4        X                  
         p      10       3        X                  
         d       4       2                 X         
 
 
      Basis set label: C.ANO-S...3S2P1D......
 
      Electronic valence basis set:
      ------------------
      Associated Effective Charge   6.000000 au
      Associated Actual Charge      6.000000 au
      Nuclear Model: Point charge
 
      Shell  nPrim  nBasis  Cartesian Spherical Contaminant
         s      10       3        X                  
         p       6       2        X                  
         d       3       1                 X         
 
 
      Basis set label: H.ANO-S...2S......
 
      Electronic valence basis set:
      ------------------
      Associated Effective Charge   1.000000 au
      Associated Actual Charge      1.000000 au
      Nuclear Model: Point charge
 
      Shell  nPrim  nBasis  Cartesian Spherical Contaminant
         s       7       2        X                  
--
 
 
++    Molecular structure info:
      -------------------------
 
                    ************************************************ 
                    **** Cartesian Coordinates / bohr, angstrom **** 
                    ************************************************ 
 
     Center  Label                x              y              z                     x              y              z
        1      S1               0.000000       0.000000      -2.179392              0.000000       0.000000      -1.153285
        2      C1               0.000000       2.342084       0.101491              0.000000       1.239377       0.053707
        3      C1               0.000000      -2.342084       0.101491              0.000000      -1.239377       0.053707
        4      C2               0.000000       1.362901       2.487488              0.000000       0.721216       1.316322
        5      C2               0.000000      -1.362901       2.487488              0.000000      -0.721216       1.316322
        6      H1               0.000000       4.307677      -0.435046              0.000000       2.279524      -0.230217
        7      H1               0.000000      -4.307677      -0.435046              0.000000      -2.279524      -0.230217
        8      H2               0.000000       2.506597       4.177854              0.000000       1.326434       2.210825
        9      H2               0.000000      -2.506597       4.177854              0.000000      -1.326434       2.210825
 
                    *************************************** 
                    *    InterNuclear Distances / bohr    * 
                    *************************************** 
 
               1 S1            2 C1            3 C1            4 C2            5 C2            6 H1    
    1 S1       0.000000
    2 C1       3.269217        0.000000
    3 C1       3.269217        4.684168        0.000000
    4 C2       4.861817        2.579104        4.406801        0.000000
    5 C2       4.861817        4.406801        2.579104        2.725802        0.000000
    6 H1       4.647453        2.037505        6.671371        4.148844        6.379393        0.000000
    7 H1       4.647453        6.671371        2.037505        6.379393        4.148844        8.615353
    8 H2       6.833565        4.079682        6.334544        2.040926        4.222601        4.952044
    9 H2       6.833565        6.334544        4.079682        4.222601        2.040926        8.228802
 
               7 H1            8 H2            9 H2    
    7 H1       0.000000
    8 H2       8.228802        0.000000
    9 H2       4.952044        5.013194        0.000000
 
                    ******************************************* 
                    *    InterNuclear Distances / angstrom    * 
                    ******************************************* 
 
               1 S1            2 C1            3 C1            4 C2            5 C2            6 H1    
    1 S1       0.000000
    2 C1       1.729995        0.000000
    3 C1       1.729995        2.478755        0.000000
    4 C2       2.572763        1.364803        2.331979        0.000000
    5 C2       2.572763        2.331979        1.364803        1.442433        0.000000
    6 H1       2.459326        1.078201        3.530337        2.195474        3.375829        0.000000
    7 H1       2.459326        3.530337        1.078201        3.375829        2.195474        4.559049
    8 H2       3.616167        2.158875        3.352096        1.080012        2.234504        2.620509
    9 H2       3.616167        3.352096        2.158875        2.234504        1.080012        4.354494
 
               7 H1            8 H2            9 H2    
    7 H1       0.000000
    8 H2       4.354494        0.000000
    9 H2       2.620509        2.652868        0.000000
 
                    ************************************** 
                    *    Valence Bond Angles / degree    * 
                    ************************************** 
                          Atom centers                 Phi
                      4 C2       2 C1       6 H1       127.58
                      5 C2       3 C1       7 H1       127.58
                      2 C1       4 C2       5 C2       112.31
                      2 C1       4 C2       8 H2       123.61
                      5 C2       4 C2       8 H2       124.08
                      3 C1       5 C2       4 C2       112.31
                      3 C1       5 C2       9 H2       123.61
                      4 C2       5 C2       9 H2       124.08
 
           ***************************************************************
           *              Valence Dihedral Angles / degree               *
           ***************************************************************
                    Atom centers                       Phi1     Phi2     Theta 
           6 H1       2 C1       4 C2       8 H2        127.58   123.61    -0.00
           7 H1       3 C1       5 C2       9 H2        127.58   123.61    -0.00
           5 C2       4 C2       2 C1       6 H1        112.31   127.58  -180.00
           2 C1       4 C2       5 C2       3 C1        112.31   112.31    -0.00
           2 C1       4 C2       5 C2       9 H2        112.31   124.08  -180.00
           8 H2       4 C2       5 C2       9 H2        124.08   124.08    -0.00
           4 C2       5 C2       3 C1       7 H1        112.31   127.58  -180.00
           3 C1       5 C2       4 C2       8 H2        112.31   124.08  -180.00
--
 
 
            Nuclear Potential Energy            201.91845202 au
 
--- Stop Module: gateway at Fri Dec  5 01:03:35 2025 /rc=_RC_ALL_IS_WELL_ ---
*** files: xmldump
    saved to directory /home/charlie/input_examples/molcas/thiphene-excited
--- Module gateway spent 1 second ---

--- Start Module: seward at Fri Dec  5 01:03:38 2025 ---
 
()()()()()()()()()()()()()()()()()()()()()()()()()()()()()()()()()()()()()()()()()()()()()()()()()()

                                              &SEWARD

             launched 10 MPI processes, running in PARALLEL mode (work-sharing enabled)
                       available to each process: 2.0 GB of memory, 1 thread
                                        master pid: 3072395
()()()()()()()()()()()()()()()()()()()()()()()()()()()()()()()()()()()()()()()()()()()()()()()()()()
 
               SEWARD will generate:
                  Multipole Moment integrals up to order  2
                  Kinetic Energy integrals
                  Nuclear Attraction integrals (point charge)
                  One-Electron Hamiltonian integrals
                  Velocity integrals
                  Orbital angular momentum around ( 0.0000  0.0000 -0.0000 )
                  Velocity quadrupole around ( 0.0000  0.0000 -0.0000 )
                  Two-Electron Repulsion integrals
 
 Title:
                                       Thiophene molecule                               
 
 
                   Integrals are discarded if absolute value <: 1.00E-14
                   Integral cutoff threshold is set to       <: 1.00E-16
 
                    Unitary symmetry adaptation
 
 
            Nuclear Potential Energy            201.91845202 au
 
 
      Basis set specifications :
      Symmetry species         a1   a2   b2   b1 
      Basis functions           35   10   29   13
 
 
      Input file to MOLDEN was generated!
 
--- Stop Module: seward at Fri Dec  5 01:03:41 2025 /rc=_RC_ALL_IS_WELL_ ---
*** files: thipehene-excited.GssOrb thipehene-excited.guessorb.molden xmldump
    saved to directory /home/charlie/input_examples/molcas/thiphene-excited
--- Module seward spent 2 seconds ---

>>> IF (ITER == 1)

*** symbolic link created: INPORB -> thipehene-excited.GssOrb
--- Start Module: scf at Fri Dec  5 01:03:44 2025 ---
 
()()()()()()()()()()()()()()()()()()()()()()()()()()()()()()()()()()()()()()()()()()()()()()()()()()

                                                &SCF

             launched 10 MPI processes, running in PARALLEL mode (work-sharing enabled)
                       available to each process: 2.0 GB of memory, 1 thread
                                        master pid: 3072523
()()()()()()()()()()()()()()()()()()()()()()()()()()()()()()()()()()()()()()()()()()()()()()()()()()
 
++    Input section:
      --------------
 
      Header of the integral files:
      
       Integrals generated by Gateway/Seward, Fri Dec  5 01:03:39 2025
 
       Title:
        Thiophene molecule
 
      Cartesian coordinates in angstrom:
      -----------------------------------------------------
      No.  Label        X            Y            Z        
      -----------------------------------------------------
       1   S1         0.00000000   0.00000000  -1.15328454
       2   C1         0.00000000   1.23937740   0.05370665
       3   C2         0.00000000   0.72121627   1.31632171
       4   H1         0.00000000   2.27952429  -0.23021663
       5   H2         0.00000000   1.32643397   2.21082537
       6   C1         0.00000000  -1.23937740   0.05370665
       7   C2         0.00000000  -0.72121627   1.31632171
       8   H1         0.00000000  -2.27952429  -0.23021663
       9   H2         0.00000000  -1.32643397   2.21082537
      -----------------------------------------------------
      Nuclear repulsion energy =  201.91845202
--
 
++    Orbital specifications:
      -----------------------
 
      Symmetry species               1   2   3   4
                                    a1  a2  b2  b1
      Frozen orbitals                0   0   0   0
      Occupied orbitals             11   1   7   3
      Secondary orbitals            24   9  22  10
      Deleted orbitals               0   0   0   0
      Total number of orbitals      35  10  29  13
      Number of basis functions     35  10  29  13
--
 
      Molecular charge                           0.000
 
++    Optimization specifications:
      ----------------------------
 
      SCF Algorithm: Conventional
      Minimized density differences are used
      Number of density matrices in core                 5
      Maximum number of NDDO SCF iterations             40
      Maximum number of HF SCF iterations               40
      Threshold for SCF energy change             1.00E-09
      Threshold for density matrix                1.00E-04
      Threshold for Fock matrix                   1.50E-04
      Threshold for linear dependence             1.00E-09
      Threshold at which DIIS is turned on        1.50E-01
      Maximum depth in the DIIS procedure                5
      Maximum depth in the BFGS Hessian update          30
      Threshold at which QNR/C2DIIS is turned on  7.50E-02
      Threshold for Norm(delta) (QNR/C2DIIS)      1.00E-03
      All orbitals punched on: SCFORB
--
 
      Detected guessorb starting orbitals                                             
 
 
++ Convergence information
                                   SCF        iterations: Energy and convergence statistics
 
Iter     Tot. SCF        One-elec.       Two-elec.     Energy      Max Dij or  Max Fij      DNorm      TNorm      AccCon     Time
         Energy          Energy          Energy        Change      Delta Norm                                                in Sec.
   1  -550.729382087 -1146.208535058   393.560700949   0.00E+00    3.42E-01*   1.21E-01*    9.06E+00   1.58E+02   None         0.
   2  -551.238954389 -1160.782747583   407.625341172  -5.10E-01*   2.15E-01*   7.60E-02*    2.75E+00   1.61E+02   EDIIS        0.
   3  -551.303268348 -1155.070676906   401.848956536  -6.43E-02*   7.52E-02*   3.03E-02*    1.07E+00   1.60E+02   EDIIS        0.
   4  -551.319880581 -1157.951577385   404.713244782  -1.66E-02*   3.80E-02*   1.38E-02*    2.72E-01   1.61E+02   c2DIIS       0.
   5  -551.327397681 -1156.997869550   403.752019848  -7.52E-03*   1.20E-02*   3.11E-03*    8.67E-02   1.60E+02   QNRc2DIIS    0.
   6  -551.327679382 -1156.990095317   403.743963913  -2.82E-04*   1.60E-02*   2.97E-03*    2.71E-02   1.60E+02   QNRc2DIIS    0.
   7  -551.327798664 -1156.977982413   403.731731726  -1.19E-04*   1.80E-03*   5.57E-04*    1.51E-02   1.60E+02   QNRc2DIIS    0.
   8  -551.327805881 -1156.992397721   403.746139817  -7.22E-06*   1.19E-03*   1.61E-04*    4.78E-03   1.60E+02   QNRc2DIIS    0.
   9  -551.327807249 -1156.990832516   403.744573244  -1.37E-06*   2.51E-04    7.42E-05     1.92E-03   1.60E+02   QNRc2DIIS    0.
  10  -551.327807363 -1156.990285456   403.744026071  -1.13E-07*   5.23E-05    1.51E-05     3.00E-04   1.60E+02   QNRc2DIIS    0.
  11  -551.327807367 -1156.991316076   403.745056686  -4.70E-09*   1.86E-05    5.24E-06     6.35E-05   1.60E+02   QNRc2DIIS    0.
  12  -551.327807368 -1156.991051205   403.744791815  -7.76E-10    8.41E-06    1.99E-06     3.08E-05   1.60E+02   QNRc2DIIS    0.
 
       Convergence after  12 Macro Iterations
--
 
 *****************************************************************************************************************************
 *                                                                                                                           *
 *                                             SCF/KS-DFT Program, Final results                                             *
 *                                                                                                                           *
 *                                                                                                                           *
 *                                                                                                                           *
 *                                                       Final Results                                                       *
 *                                                                                                                           *
 *****************************************************************************************************************************
 
::    Total SCF energy                               -551.3278073681
      One-electron energy                           -1156.9910512051
      Two-electron energy                             403.7447918147
      Nuclear repulsion energy                        201.9184520223
      Kinetic energy (interpolated)                   551.3968049420
      Virial theorem                                    0.9998748677
      Total spin, S(S+1)                                0.0000000000
      Total spin, S                                     0.0000000000
      Max non-diagonal density matrix element           0.0000060098
      Max non-diagonal Fock matrix element              0.0000028042
 
 
      All orbitals with orbital energies smaller than  E(LUMO)+0.5 are printed
 
++    Molecular orbitals:
      -------------------
 
      Title: SCF orbitals

      Molecular orbitals for symmetry species 1: a1 
 
          Orbital            1         2         3         4         5         6         7         8         9        10    
          Energy          -91.9821  -11.2688  -11.2495   -8.9866   -6.6674   -1.1730   -0.9872   -0.7730   -0.7023   -0.5550
          Occ. No.          2.0000    2.0000    2.0000    2.0000    2.0000    2.0000    2.0000    2.0000    2.0000    2.0000
 
        1 S1     1s         0.9990    0.0000   -0.0000    0.0447   -0.0003   -0.0040    0.0036    0.0007    0.0012    0.0020
        2 S1     2s        -0.0447    0.0003   -0.0000    0.9993   -0.0054   -0.0264    0.0230    0.0036    0.0080    0.0127
        3 S1     3s        -0.0000    0.0006   -0.0001    0.0013    0.0001    0.3632   -0.5825   -0.4035    0.2291    0.1839
        4 S1     4s        -0.0000    0.0000   -0.0000   -0.0008   -0.0014   -0.0138    0.0107    0.0000    0.0093    0.0172
        5 S1     2pz        0.0001    0.0000   -0.0000    0.0052    0.9999   -0.0144    0.0085    0.0020    0.0073    0.0013
        6 S1     3pz       -0.0000   -0.0000   -0.0004    0.0002   -0.0016    0.0847   -0.0430    0.0658   -0.1754   -0.0472
        7 S1     4pz       -0.0000   -0.0002   -0.0004   -0.0014   -0.0012   -0.0377    0.0196   -0.0040    0.0204    0.0057
        8 S1     3d0       -0.0000   -0.0003   -0.0001    0.0000   -0.0001    0.0099   -0.0085   -0.0032   -0.0301    0.0171
        9 S1     4d0       -0.0000   -0.0002   -0.0002   -0.0003   -0.0011   -0.0100   -0.0057    0.0028    0.0045   -0.0023
       10 S1     3d2+       0.0000    0.0001   -0.0001    0.0000   -0.0001   -0.0126    0.0108   -0.0041   -0.0053    0.0200
       11 S1     4d2+       0.0000    0.0001   -0.0001    0.0008   -0.0001    0.0091   -0.0099    0.0059    0.0001   -0.0017
       12 C1     1s         0.0000    0.9990   -0.0363    0.0005    0.0001   -0.0426    0.0025   -0.0242    0.0083   -0.0117
       13 C1     2s         0.0001    0.0000    0.0012    0.0031    0.0013    0.4251   -0.1173    0.4650    0.0077   -0.0830
       14 C1     3s         0.0000   -0.0024    0.0006    0.0010    0.0001   -0.0256   -0.0082   -0.0125    0.0054   -0.0224
       15 C1     2py        0.0000   -0.0001   -0.0010    0.0017   -0.0014   -0.1046   -0.0199    0.3363    0.2858   -0.2488
       16 C1     3py        0.0000    0.0003   -0.0009    0.0018   -0.0004    0.0394   -0.0667    0.0135   -0.0898    0.0185
       17 C1     2pz        0.0000   -0.0002    0.0014    0.0001    0.0002    0.0354    0.2467    0.0665   -0.1590    0.3295
       18 C1     3pz       -0.0000    0.0003    0.0011    0.0002    0.0008   -0.0037   -0.0430   -0.0471    0.0582   -0.0377
       19 C1     3d1-      -0.0000   -0.0002   -0.0000   -0.0012    0.0000   -0.0002   -0.0343   -0.0288    0.0077    0.0201
       20 C1     3d0       -0.0000    0.0001    0.0000   -0.0000   -0.0001    0.0159    0.0017   -0.0030   -0.0021    0.0305
       21 C1     3d2+       0.0000   -0.0003    0.0002    0.0005   -0.0001   -0.0160    0.0163   -0.0226    0.0007    0.0239
       22 C2     1s        -0.0000    0.0362    0.9989   -0.0002   -0.0001   -0.0526   -0.0478    0.0077    0.0022    0.0028
       23 C2     2s        -0.0000    0.0008   -0.0002   -0.0009   -0.0005    0.3669    0.4730   -0.1891    0.0976   -0.0279
       24 C2     3s         0.0000    0.0003   -0.0027   -0.0000   -0.0000   -0.0450   -0.0358    0.0034   -0.0055    0.0016
       25 C2     2py       -0.0000   -0.0001   -0.0006   -0.0011   -0.0001   -0.0609   -0.0625    0.2170    0.1511    0.6542
       26 C2     3py        0.0000   -0.0004   -0.0003   -0.0011   -0.0002    0.0111    0.0612   -0.1101   -0.0422   -0.1155
       27 C2     2pz        0.0000   -0.0012    0.0003   -0.0005   -0.0001   -0.0942    0.0709   -0.2671    0.4246   -0.0579
       28 C2     3pz        0.0000   -0.0009    0.0002   -0.0007   -0.0002    0.0357    0.0261   -0.0044   -0.0988    0.0336
       29 C2     3d1-       0.0000   -0.0002   -0.0001    0.0002    0.0001   -0.0040    0.0048   -0.0228    0.0131    0.0120
       30 C2     3d0        0.0000   -0.0000    0.0002    0.0001    0.0002    0.0092   -0.0019    0.0123   -0.0007    0.0446
       31 C2     3d2+      -0.0000    0.0001   -0.0001   -0.0002   -0.0001   -0.0146   -0.0292    0.0205   -0.0036    0.0245
       32 H1     1s        -0.0001    0.0007    0.0012   -0.0026    0.0005    0.0545    0.0402    0.1929    0.2327   -0.2220
       33 H1     2s        -0.0000    0.0002    0.0008   -0.0018    0.0004   -0.0197    0.0600   -0.1248   -0.0194    0.0684
       34 H2     1s        -0.0000    0.0010    0.0007    0.0008    0.0000    0.0587    0.0725    0.0120    0.3125    0.2025
       35 H2     2s        -0.0000    0.0006   -0.0000    0.0007    0.0001   -0.0153   -0.0678    0.0806   -0.0538   -0.0523
 
          Orbital           11        12        13        14        15        16        17        18        19        20    
          Energy           -0.4800    0.1445    0.1687    0.1970    0.2775    0.3600    0.3835    0.4376    0.4846    0.5623
          Occ. No.          2.0000    0.0000    0.0000    0.0000    0.0000    0.0000    0.0000    0.0000    0.0000    0.0000
 
        1 S1     1s        -0.0070   -0.0083    0.0560    0.0404    0.0288   -0.0048    0.0087   -0.0156   -0.0043   -0.0219
        2 S1     2s        -0.0432   -0.0478    0.3261    0.2345    0.1643   -0.0261    0.0531   -0.0868   -0.0242   -0.1221
        3 S1     3s        -0.3982   -0.2240    1.4521    1.0216    0.5540    0.0051    0.2904   -0.2170   -0.0317   -0.3224
        4 S1     4s        -0.0493   -0.0464    0.4937    0.3177    0.2384   -0.1699    0.0742   -0.1354   -0.1358   -0.3167
        5 S1     2pz       -0.0134   -0.0076    0.0372    0.0537    0.0326   -0.0191    0.0448    0.0173   -0.0061   -0.0254
        6 S1     3pz        0.7246   -0.0943    0.4445    0.7884    0.1761   -0.1106    0.6918    0.4350    0.0004   -0.1813
        7 S1     4pz       -0.0355   -0.1209    0.5057    0.4999    0.1520   -0.6086    0.7547    0.2553   -0.6435   -0.3503
        8 S1     3d0        0.0236    0.0188    0.0173    0.0459    0.3886    0.2981   -0.0212   -0.1325   -0.4260   -0.3295
        9 S1     4d0        0.0039   -0.0075    0.0139    0.0441    0.2295    0.0938    0.0526   -0.0071   -0.1445   -0.1671
       10 S1     3d2+      -0.0438    0.0448   -0.0438    0.0968   -0.2978    0.3239    0.0928    0.4283   -0.1530   -0.3241
       11 S1     4d2+       0.0039    0.0072   -0.0421    0.0459   -0.1084    0.1144    0.0469    0.1913   -0.0473   -0.2228
       12 C1     1s         0.0058   -0.0927    0.0386   -0.2495   -0.0068    0.0763   -0.0238    0.0755    0.1008   -0.1348
       13 C1     2s         0.1416   -0.6963    0.1907   -1.7606   -0.0233    0.3012   -0.2353    0.3149    0.5431   -1.2617
       14 C1     3s         0.0156   -0.2361    0.0728   -0.6479   -0.1462    0.1621   -0.1078    0.1374    0.2600   -0.2817
       15 C1     2py       -0.2033   -0.5077    0.5297    0.8572    0.6205   -0.6789    0.5078    0.5897   -0.2343   -1.6370
       16 C1     3py        0.0315   -0.2716    0.3174    0.9397    1.0338   -0.6430    0.6846    0.2683   -0.2994   -1.7285
       17 C1     2pz       -0.3249    0.2487    0.8825    0.0230   -0.4237    0.6532   -0.3468   -0.7608    0.2132    0.3545
       18 C1     3pz        0.0473    0.1768    0.7645   -0.0686   -0.3478    0.2846   -0.8985   -1.0830    0.0469    0.5714
       19 C1     3d1-       0.0366    0.0004   -0.0395    0.0298   -0.0729    0.1034   -0.0122   -0.0352    0.1095   -0.0922
       20 C1     3d0       -0.0083   -0.0204    0.0038   -0.0131    0.0183   -0.0802    0.0755   -0.0462    0.0749    0.1192
       21 C1     3d2+      -0.0121    0.0171   -0.0040    0.0141   -0.0706   -0.1131    0.0510   -0.1316   -0.0074   -0.1327
       22 C2     1s         0.0085   -0.1458   -0.1246    0.1399    0.1117    0.0059    0.0525    0.0861    0.0910   -0.0218
       23 C2     2s        -0.1121   -1.0424   -0.8279    0.9466    0.5726   -0.0570    0.3132    0.3170    0.6688    0.1218
       24 C2     3s         0.0039   -0.3926   -0.3859    0.3819    0.1467   -0.0003    0.0754   -0.0741    0.1864   -0.1016
       25 C2     2py        0.1164   -0.3014   -0.3204    0.0618   -0.0060    0.1985   -0.4796    0.1113    0.5481    0.8246
       26 C2     3py       -0.0038   -0.1178   -0.1505    0.0433    0.1151    0.1545   -0.9788    0.5843    0.6684    0.5032
       27 C2     2pz        0.2893   -0.3821    0.2708   -0.5599   -0.0827    0.9114    0.3853   -0.4466    0.5553    0.1836
       28 C2     3pz       -0.0128   -0.1227    0.3598   -0.7213    0.2098    0.6858    0.6219   -0.0015    0.6072    0.5852
       29 C2     3d1-       0.0231    0.0038    0.0105   -0.0073    0.0888    0.0115   -0.0122    0.0369   -0.1028    0.2076
       30 C2     3d0        0.0180   -0.0161   -0.0313    0.0134    0.0609    0.0700    0.0670    0.0241   -0.0801   -0.1702
       31 C2     3d2+       0.0101    0.0228    0.0035   -0.0100   -0.0366   -0.0397    0.0330   -0.1263   -0.0392    0.0120
       32 H1     1s        -0.0596    0.9782   -0.1957   -0.0101   -0.5488    1.2906    0.1665   -1.0960   -0.0393    2.2092
       33 H1     2s         0.0017    0.7065   -0.2152    0.0544   -0.3393    0.5567    0.1716   -0.8700    0.2967    0.9398
       34 H2     1s         0.1683    0.9478   -0.2264    0.0809    0.1662   -1.1792   -0.3847    1.1795   -1.1386   -0.8567
       35 H2     2s        -0.0371    0.7245   -0.0459   -0.0069    0.0052   -0.7640   -0.2088    0.5811   -0.2404   -0.6423

      Molecular orbitals for symmetry species 2: a2 
 
          Orbital            1         2         3         4    
          Energy           -0.3330    0.1898    0.3634    0.5535
          Occ. No.          2.0000    0.0000    0.0000    0.0000
 
        1 S1     3d2-       0.0784   -0.1751   -0.2058    1.0079
        2 S1     4d2-       0.0015   -0.0389   -0.1229    0.4839
        3 C1     2px        0.7887   -0.9611    0.2931   -1.0777
        4 C1     3px        0.0391   -0.6371    1.1187   -0.6109
        5 C1     3d2-      -0.0128   -0.0072    0.0526   -0.0449
        6 C1     3d1+       0.0157    0.0615   -0.0454   -0.0885
        7 C2     2px        0.4904    1.6479    0.1002    0.9026
        8 C2     3px        0.0163    0.9978    0.5757    0.7523
        9 C2     3d2-       0.0421    0.0372   -0.0688   -0.0158
       10 C2     3d1+      -0.0375    0.0132    0.1004    0.0699

      Molecular orbitals for symmetry species 3: b2 
 
          Orbital            1         2         3         4         5         6         7         8         9        10    
          Energy          -11.2688  -11.2486   -6.6684   -0.9904   -0.7570   -0.5855   -0.5355    0.1444    0.1918    0.2677
          Occ. No.          2.0000    2.0000    2.0000    2.0000    2.0000    2.0000    2.0000    0.0000    0.0000    0.0000
 
        1 S1     2py        0.0000   -0.0000    0.9999   -0.0109    0.0180    0.0069   -0.0255   -0.0480    0.0051   -0.0381
        2 S1     3py       -0.0002   -0.0003   -0.0012    0.1289   -0.2101   -0.0461    0.4178   -0.9114   -0.2185   -0.8503
        3 S1     4py       -0.0004   -0.0002   -0.0022   -0.0377    0.0696    0.0496   -0.1197   -0.5464   -0.0771   -0.3051
        4 S1     3d1-      -0.0002   -0.0001    0.0001    0.0521   -0.0463   -0.0248    0.0659    0.0737    0.2877    0.2345
        5 S1     4d1-      -0.0001   -0.0001   -0.0009   -0.0038    0.0130    0.0151   -0.0267   -0.0353    0.1005    0.0606
        6 C1     1s         0.9989   -0.0355   -0.0001   -0.0483    0.0073    0.0056    0.0085    0.2091   -0.0192   -0.1821
        7 C1     2s        -0.0010    0.0010    0.0001    0.5901   -0.3143   -0.1492   -0.0149    1.5688   -0.0160   -1.0186
        8 C1     3s        -0.0029    0.0005   -0.0007   -0.0379   -0.0084   -0.0102    0.0186    0.6087   -0.1199   -0.4818
        9 C1     2py        0.0003   -0.0006    0.0001    0.0560   -0.1436    0.4954   -0.4600   -0.3933   -0.4092   -0.1397
       10 C1     3py        0.0006   -0.0006    0.0006    0.0680   -0.0124   -0.0502   -0.0261   -0.4786   -0.0718    0.4268
       11 C1     2pz       -0.0016    0.0000   -0.0021    0.0562    0.3668   -0.2281   -0.4253   -0.3554    0.1902   -0.9223
       12 C1     3pz       -0.0010   -0.0002   -0.0013   -0.0654   -0.0351    0.0686   -0.0001   -0.0384    0.3832   -0.7596
       13 C1     3d1-      -0.0001    0.0000   -0.0001   -0.0169   -0.0100   -0.0066    0.0517    0.0073   -0.0203   -0.0024
       14 C1     3d0        0.0000   -0.0000   -0.0000    0.0125    0.0145   -0.0242    0.0239    0.0034   -0.0443   -0.0409
       15 C1     3d2+      -0.0002    0.0002    0.0002   -0.0197    0.0291   -0.0159    0.0139   -0.0257    0.0187    0.0271
       16 C2     1s         0.0355    0.9989    0.0001   -0.0388   -0.0263    0.0127    0.0034    0.0157   -0.2526    0.2298
       17 C2     2s         0.0015   -0.0015    0.0008    0.3550    0.4537    0.0261    0.1126    0.1292   -1.7296    1.4903
       18 C2     3s         0.0005   -0.0032    0.0004   -0.0331   -0.0077    0.0159    0.0114    0.0960   -0.6814    0.5348
       19 C2     2py        0.0017    0.0017    0.0010    0.2092    0.2272    0.0747    0.0889   -0.2972    0.6167   -0.5374
       20 C2     3py        0.0014    0.0016    0.0010    0.0060   -0.0168    0.0089    0.0754   -0.2396    0.8022   -0.4252
       21 C2     2pz       -0.0020    0.0002   -0.0013   -0.0713    0.2101    0.4599    0.2751    0.4169    0.1725   -0.9366
       22 C2     3pz       -0.0017    0.0004   -0.0012    0.0933    0.0919   -0.0821   -0.0525    0.2241    0.3261   -1.0282
       23 C2     3d1-      -0.0003    0.0000   -0.0000   -0.0106    0.0241    0.0455    0.0471    0.0149   -0.0069    0.0217
       24 C2     3d0        0.0001    0.0004    0.0001    0.0356    0.0291   -0.0130    0.0184   -0.0007    0.0251    0.0703
       25 C2     3d2+       0.0002   -0.0004   -0.0000    0.0041   -0.0090   -0.0115    0.0051   -0.0161    0.0480    0.0488
       26 H1     1s        -0.0002    0.0001   -0.0004    0.0643   -0.1253    0.2822   -0.1848   -0.0259    0.2640    0.6468
       27 H1     2s        -0.0006    0.0000   -0.0001   -0.0973    0.1005   -0.0765    0.0796   -0.1432    0.2264    0.4724
       28 H2     1s         0.0002   -0.0001    0.0003    0.0226    0.1219    0.2672    0.2048    0.0354    0.1292    0.6366
       29 H2     2s        -0.0000   -0.0005    0.0003   -0.0748   -0.1575   -0.0739   -0.0664   -0.0555    0.1638    0.2789
 
          Orbital           11        12        13    
          Energy            0.3872    0.4521    0.5504
          Occ. No.          0.0000    0.0000    0.0000
 
        1 S1     2py       -0.0338    0.0514   -0.0009
        2 S1     3py       -0.3432    0.7366    0.0625
        3 S1     4py        0.0846   -0.2216    0.2647
        4 S1     3d1-      -0.2553   -0.0781   -0.1363
        5 S1     4d1-      -0.1175   -0.0444   -0.0344
        6 C1     1s         0.1139    0.0209    0.0280
        7 C1     2s         0.6598   -0.2026    0.0249
        8 C1     3s         0.1766   -0.0484    0.1769
        9 C1     2py       -1.2311   -0.9330   -1.5983
       10 C1     3py       -1.1752   -0.5301   -1.5883
       11 C1     2pz       -0.3677    1.6524   -0.0939
       12 C1     3pz       -0.7044    1.4502    0.1613
       13 C1     3d1-      -0.0789    0.0483   -0.1495
       14 C1     3d0       -0.0075    0.1260   -0.0254
       15 C1     3d2+      -0.0293   -0.0549    0.0301
       16 C2     1s        -0.0997   -0.0189    0.0003
       17 C2     2s        -0.6445    0.0094    0.6103
       18 C2     3s        -0.2845   -0.1152    0.0003
       19 C2     2py       -0.3877   -1.2753    1.4628
       20 C2     3py       -0.1317   -1.2418    1.9161
       21 C2     2pz        0.4477    0.8962    2.3699
       22 C2     3pz        1.0051    0.9682    2.1036
       23 C2     3d1-      -0.0960    0.0379    0.0157
       24 C2     3d0        0.0127   -0.0137    0.0521
       25 C2     3d2+       0.0148   -0.0434    0.2324
       26 H1     1s         1.1678    2.6407    1.3600
       27 H1     2s         0.5771    1.4560    0.6465
       28 H2     1s         1.1946   -0.0606   -3.4876
       29 H2     2s         0.7868   -0.0401   -1.7938

      Molecular orbitals for symmetry species 4: b1 
 
          Orbital            1         2         3         4         5         6         7         8    
          Energy           -6.6656   -0.5243   -0.3487    0.1094    0.2539    0.3693    0.5412    0.5806
          Occ. No.          2.0000    2.0000    2.0000    0.0000    0.0000    0.0000    0.0000    0.0000
 
        1 S1     2px        1.0000   -0.0087   -0.0024    0.0292   -0.0191    0.0004   -0.0149    0.0512
        2 S1     3px       -0.0012    0.4604   -0.7900    0.7426   -0.3041   -0.0338   -0.3309    0.7840
        3 S1     4px        0.0001   -0.0418   -0.0370    0.2998    0.0955   -0.5848   -0.8017    1.3785
        4 S1     3d1+       0.0001    0.0424   -0.0047   -0.0983   -0.2475    0.3294   -0.8229    0.0634
        5 S1     4d1+      -0.0006   -0.0049   -0.0002   -0.0041   -0.1528    0.1515   -0.3880    0.0518
        6 C1     2px        0.0003    0.4521    0.0815   -1.2081    0.1616   -0.2999    0.7345   -0.9426
        7 C1     3px       -0.0000   -0.0421   -0.0034   -0.5570    0.6160   -0.3835    0.2195   -1.9211
        8 C1     3d2-      -0.0003   -0.0272    0.0069   -0.0189    0.0594   -0.0188    0.1494    0.0525
        9 C1     3d1+      -0.0002    0.0040    0.0567    0.0095   -0.0311   -0.1125   -0.0283   -0.0192
       10 C2     2px        0.0001    0.4141    0.5752    0.7180   -0.1783    0.1451    0.0434    0.4653
       11 C2     3px        0.0001   -0.0519    0.0044    0.3552    0.2923    0.8679    0.0454    0.9650
       12 C2     3d2-       0.0000   -0.0088   -0.0220   -0.0337    0.0427    0.0802    0.1454    0.1008
       13 C2     3d1+      -0.0000   -0.0247   -0.0047    0.0475    0.0752   -0.0106    0.0569   -0.1014
--
 
 
++    Molecular charges:
      ------------------
 
      Mulliken charges per centre and basis function type
      ---------------------------------------------------
 
                S1      C1      C2      H1      H2    
      1s       2.0000  1.9994  1.9994  0.5966  0.6156
      2s       2.0007  1.2243  1.1208  0.0414  0.0474
      2px      1.9999  1.0670  1.0085  0.0000  0.0000
      2pz      1.9998  0.9491  1.0126  0.0000  0.0000
      2py      1.9999  1.0799  0.9409  0.0000  0.0000
      3s       1.7580 -0.0063 -0.0070  0.0000  0.0000
      3px      1.7163 -0.0192 -0.0199  0.0000  0.0000
      3pz      1.3173  0.0404  0.0664  0.0000  0.0000
      3py      0.7846  0.0330  0.0638  0.0000  0.0000
      4s      -0.0023  0.0000  0.0000  0.0000  0.0000
      3d2+     0.0211  0.0179  0.0128  0.0000  0.0000
      3d1+     0.0179  0.0345  0.0175  0.0000  0.0000
      3d0      0.0158  0.0244  0.0305  0.0000  0.0000
      3d1-     0.0756  0.0408  0.0465  0.0000  0.0000
      3d2-     0.0499  0.0095  0.0242  0.0000  0.0000
      4px     -0.0266  0.0000  0.0000  0.0000  0.0000
      4pz      0.0018  0.0000  0.0000  0.0000  0.0000
      4py      0.0592  0.0000  0.0000  0.0000  0.0000
      4d2+    -0.0057  0.0000  0.0000  0.0000  0.0000
      4d1+    -0.0026  0.0000  0.0000  0.0000  0.0000
      4d0     -0.0108  0.0000  0.0000  0.0000  0.0000
      4d1-     0.0042  0.0000  0.0000  0.0000  0.0000
      4d2-     0.0010  0.0000  0.0000  0.0000  0.0000
      Total   15.7749  6.4946  6.3169  0.6380  0.6630
 
      N-E      0.2251 -0.4946 -0.3169  0.3620  0.3370
 
      Total electronic charge=   44.000000
 
      Total            charge=   -0.000000
--
 
 
++    Static properties:
      ------------------
 
 
      LoProp Charges per center
 

                   S1       C1       C2       H1       H2    
      Nuclear     16.0000   6.0000   6.0000   1.0000   1.0000
      Electronic -15.7225  -6.2620  -6.1493  -0.8583  -0.8692
 
      Total        0.2775  -0.2620  -0.1493   0.1417   0.1308
--
 
 
++    Natural Bond Order analysis
      ---------------------------
      Based on LoProp computed density
      -------------------------------------------------------------------------------------
      Atom A:Gen.  Atom B:Gen.  Bond Order
      -------------------------------------------------------------------------------------
      NBO located      0.996 non-bonded electrons on atom S1    :E  
      NBO located      1.000 non-bonded electrons on atom S1    :E  
      NBO located      1.000 non-bonded electrons on atom S1    :E  
      NBO located      0.999 non-bonded electrons on atom S1    :E  
      NBO located      1.000 non-bonded electrons on atom S1    :E  
      The remaining   20.506 electrons are to be considered as diffuse
--
 
 
++    Molecular properties:
      ---------------------
 
      Charge (e):
                      =   -0.0000
      Dipole Moment (debye):
      Origin of the operator (angstrom)=    0.0000    0.0000    0.0000
                   X=  0.0000E+00               Y=  0.0000E+00               Z=  7.4156E-01           Total=  7.4156E-01
      Quadrupole Moment (debye*angstrom):
      Origin of the operator (angstrom)=    0.0000    0.0000   -0.0000
                  XX= -4.2509E+01              XY=  0.0000E+00              XZ=  0.0000E+00              YY= -3.2025E+01
                  YZ=  0.0000E+00              ZZ= -3.5355E+01
      In traceless form (debye*angstrom)
                  XX= -8.8191E+00              XY=  0.0000E+00              XZ=  0.0000E+00              YY=  6.9068E+00
                  YZ=  0.0000E+00              ZZ=  1.9123E+00
--
 
 
      Input file to MOLDEN was generated!
 
 ###############################################################################
 ###############################################################################
 ###                                                                         ###
 ###                                                                         ###
 ###    WARNING: RunFile label nBas                                          ###
 ###    was used       65 times                                              ###
 ###                                                                         ###
 ###                                                                         ###
 ###############################################################################
 ###############################################################################
--- Stop Module: scf at Fri Dec  5 01:03:46 2025 /rc=_RC_ALL_IS_WELL_ ---
*** files: thipehene-excited.LprOrb thipehene-excited.scf.molden thipehene-excited.ScfOrb xmldump
    saved to directory /home/charlie/input_examples/molcas/thiphene-excited
--- Module scf spent 2 seconds ---

*** symbolic link created: INPORB -> thipehene-excited.ScfOrb
--- Start Module: rasscf at Fri Dec  5 01:03:49 2025 ---
 
()()()()()()()()()()()()()()()()()()()()()()()()()()()()()()()()()()()()()()()()()()()()()()()()()()

                                              &RASSCF

             launched 10 MPI processes, running in PARALLEL mode (work-sharing enabled)
                       available to each process: 2.0 GB of memory, 1 thread
                                        master pid: 3072654
()()()()()()()()()()()()()()()()()()()()()()()()()()()()()()()()()()()()()()()()()()()()()()()()()()
 
 
      Header of the ONEINT file:
      --------------------------
      
      Integrals generated by Gateway/Seward, Fri Dec  5 01:03:39 2025
 
 
      OrdInt status: non-squared
 
 
      Cartesian coordinates in angstrom:
      -----------------------------------------------------
      No.  Label        X            Y            Z        
      -----------------------------------------------------
       1   S1         0.00000000   0.00000000  -1.15328454
       2   C1         0.00000000   1.23937740   0.05370665
       3   C2         0.00000000   0.72121627   1.31632171
       4   H1         0.00000000   2.27952429  -0.23021663
       5   H2         0.00000000   1.32643397   2.21082537
       6   C1         0.00000000  -1.23937740   0.05370665
       7   C2         0.00000000  -0.72121627   1.31632171
       8   H1         0.00000000  -2.27952429  -0.23021663
       9   H2         0.00000000  -1.32643397   2.21082537
      -----------------------------------------------------
      Nuclear repulsion energy =  201.91845202
 
++    Wave function specifications:
      -----------------------------
 
      Number of closed shell electrons          38
      Number of electrons in active shells       6
      Max number of holes in RAS1 space          0
      Max nr of electrons in RAS3 space          0
      Number of inactive orbitals               19
      Number of active orbitals                  5
      Number of secondary orbitals              63
      Spin quantum number                      0.0
      State symmetry                             1
--
 
++    Orbital specifications:
      -----------------------
 
      Symmetry species                           1   2   3   4
                                                a1  a2  b2  b1
      Frozen orbitals                            0   0   0   0
      Inactive orbitals                         11   0   7   1
      Active orbitals                            0   2   0   3
      RAS1 orbitals                              0   0   0   0
      RAS2 orbitals                              0   2   0   3
      RAS3 orbitals                              0   0   0   0
      Secondary orbitals                        24   8  22   9
      Deleted orbitals                           0   0   0   0
      Number of basis functions                 35  10  29  13
--
 
++    CI expansion specifications:
      ----------------------------
 
      Number of CSFs                            28
      Number of determinants                    31
      Number of root(s) required                 1
      Root chosen for geometry opt.              1
      CI root used                               1
         
      highest root included in the CI            1
      max. size of the explicit Hamiltonian     28
--
 
++    Optimization specifications:
      ----------------------------
 
      RASSCF algorithm: Conventional
      Maximum number of macro iterations        50
      Maximum number of SX iterations           25
      Threshold for RASSCF energy            1.000E-08
      Threshold for max MO rotation          1.000E-01
      Threshold for max BLB element          1.000E-04
      Level shift parameter                  5.000E-01
      Make Quasi-Newton update
--
 
      Orbitals from runfile: scf orbitals
      The MO-coefficients are taken from scf orbitals on runfile
 
      Total molecular charge    0.00
 
      ************************************************************************************************************************
      *                                                                                                                      *
      *                                            Wave function control section                                             *
      *                                                                                                                      *
      ************************************************************************************************************************
 
 
                                         RASSCF iterations: Energy and convergence statistics
                                         ----------------------------------------------------
 
      Iter CI   SX   CI       RASSCF       Energy    max ROT     max BLB   max BLB  Level Ln srch  Step   QN   Walltime
          iter iter root      energy       change     param      element    value   shift minimum  type update hh:mm:ss
 Nr of preliminary CI iterations:   1
        1   1    7    1  -551.35763323    0.00E+00  -3.01E-01*   4   8 4  1.86E-02*  0.00   0.00    SX    NO    0:00:00
        2   1    8    1  -551.37542615   -1.78E-02* -8.07E-02    1   3 2  1.24E-02*  0.00   0.00    SX    NO    0:00:00
        3   1    8    1  -551.37822780   -2.80E-03*  3.22E-02    1   3 2  6.82E-03*  0.00   0.00    SX    NO    0:00:00
        4   1    8    1  -551.37880144   -5.74E-04* -1.38E-02    1   3 2  2.52E-03*  0.00   0.00    SX    NO    0:00:00
        5   1    7    1  -551.37891398   -1.13E-04*  1.43E-02    1   3 2  1.56E-03*  0.00   2.09    LS   YES    0:00:00
        6   1    6    1  -551.37893716   -2.32E-05*  2.67E-03    3   9 4  8.58E-04*  0.00   0.74    QN   YES    0:00:00
        7   1    7    1  -551.37894520   -8.04E-06* -6.48E-04    1   3 2 -3.85E-04*  0.00   0.88    QN   YES    0:00:00
        8   1    5    1  -551.37894587   -6.63E-07* -4.70E-04   11  19 1  1.42E-04*  0.00   0.97    QN   YES    0:00:00
        9   1    5    1  -551.37894600   -1.33E-07*  2.49E-04    1   3 2  5.44E-05   0.00   1.11    QN   YES    0:00:00
       10   1    4    1  -551.37894602   -2.42E-08*  5.14E-05   11  19 1  2.05E-05   0.00   0.94    QN   YES    0:00:00
       11   1    4    1  -551.37894603   -3.67E-09   1.93E-05   11  19 1  8.25E-06   0.00   1.18    QN   YES    0:00:00
      Convergence after 11 iterations
       12   1    4    1  -551.37894603   -6.77E-10   1.93E-05    3  13 4  1.50E-06   0.00   1.18    QN   YES    0:00:00
 
      ************************************************************************************************************************
                                                      Wave function printout:
                       occupation of active orbitals, and spin coupling of open shells (u,d: Spin up or down)
      ************************************************************************************************************************
 
      Note: transformation to natural orbitals
      has been made, which may change the order of the CSFs.
 
      printout of CI-coefficients larger than  0.05 for root  1
      energy=    -551.378946
      conf/sym  22444     Coeff  Weight
             1  22 200   0.09296 0.00864
             7  20 220  -0.96068 0.92290
            10  20 202   0.06322 0.00400
            14  ud 2ud   0.14053 0.01975
            19  02 220   0.06885 0.00474
            25  uu 2dd  -0.10046 0.01009
            28  00 222   0.15847 0.02511
 
      Natural orbitals and occupation numbers for root  1
      sym 2:   1.905515   0.061675
      sym 4:   1.995480   1.942122   0.095208
 
      ************************************************************************************************************************
      *                                                                                                                      *
      *                                                    Final results                                                     *
      *                                                                                                                      *
      ************************************************************************************************************************
 
 
++    Final optimization conditions:
      ------------------------------
 
      Average CI energy                            -551.37894603
      RASSCF energy for state  1                   -551.37894603
      Super-CI energy                                -0.00000000
      RASSCF energy change                           -0.00000000
      Max change in MO coefficients               4.350E-05
      Max non-diagonal density matrix element     1.934E-05
      Maximum BLB matrix element                  1.501E-06
      (orbital pair   3,  13 in symmetry   4)
      Norm of electronic gradient            8.274E-06
--
 
 
      Final state energy(ies):
      ------------------------
 
::    RASSCF root number  1 Total energy:   -551.37894603
 
++    Molecular orbitals:
      -------------------
 
      Pseudonatural active orbitals and approximate occupation numbers
 
 
 
 
      Molecular orbitals for symmetry species 1: a1 
 
 
      Orbital                 1         2         3         4         5         6         7         8         9        10
      Energy           -91.9731  -11.2571  -11.2387   -8.9784   -6.6592   -1.1678   -0.9818   -0.7682   -0.6977   -0.5498
      Occ. No.           2.0000    2.0000    2.0000    2.0000    2.0000    2.0000    2.0000    2.0000    2.0000    2.0000
 
     1 S1     1s         0.9990    0.0000   -0.0000    0.0447   -0.0003   -0.0040    0.0036    0.0007    0.0012    0.0019
     2 S1     2s        -0.0447    0.0003   -0.0000    0.9993   -0.0055   -0.0265    0.0231    0.0035    0.0080    0.0121
     3 S1     3s        -0.0000    0.0007   -0.0001    0.0014    0.0002    0.3625   -0.5826   -0.4036    0.2312    0.1799
     4 S1     4s        -0.0000    0.0001   -0.0000   -0.0008   -0.0014   -0.0134    0.0100   -0.0009    0.0095    0.0166
     5 S1     2pz        0.0001    0.0000   -0.0000    0.0053    0.9999   -0.0144    0.0085    0.0020    0.0073    0.0011
     6 S1     3pz       -0.0000   -0.0000   -0.0004    0.0002   -0.0015    0.0854   -0.0439    0.0637   -0.1747   -0.0439
     7 S1     4pz       -0.0000   -0.0002   -0.0004   -0.0014   -0.0013   -0.0375    0.0198   -0.0040    0.0199    0.0049
     8 S1     3d0       -0.0000   -0.0003   -0.0001    0.0000   -0.0001    0.0103   -0.0084   -0.0030   -0.0304    0.0170
     9 S1     4d0       -0.0000   -0.0003   -0.0002   -0.0003   -0.0012   -0.0098   -0.0056    0.0028    0.0043   -0.0024
    10 S1     3d2+       0.0000    0.0001   -0.0001    0.0000   -0.0001   -0.0124    0.0108   -0.0043   -0.0051    0.0199
    11 S1     4d2+       0.0000    0.0001   -0.0001    0.0008   -0.0001    0.0092   -0.0098    0.0058    0.0003   -0.0016
    12 C1     1s         0.0000    0.9990   -0.0375    0.0005    0.0001   -0.0427    0.0025   -0.0239    0.0083   -0.0116
    13 C1     2s         0.0001   -0.0001    0.0012    0.0031    0.0013    0.4249   -0.1177    0.4673    0.0060   -0.0804
    14 C1     3s         0.0000   -0.0026    0.0007    0.0011    0.0001   -0.0250   -0.0085   -0.0101    0.0054   -0.0222
    15 C1     2py        0.0000   -0.0001   -0.0010    0.0018   -0.0014   -0.1044   -0.0185    0.3358    0.2832   -0.2512
    16 C1     3py        0.0000    0.0003   -0.0009    0.0018   -0.0003    0.0396   -0.0657    0.0135   -0.0889    0.0160
    17 C1     2pz        0.0000   -0.0002    0.0014    0.0001    0.0002    0.0353    0.2452    0.0671   -0.1591    0.3277
    18 C1     3pz       -0.0000    0.0003    0.0011    0.0002    0.0009   -0.0045   -0.0435   -0.0460    0.0574   -0.0372
    19 C1     3d1-      -0.0000   -0.0002   -0.0000   -0.0012   -0.0000   -0.0003   -0.0342   -0.0286    0.0081    0.0201
    20 C1     3d0       -0.0000    0.0000    0.0000   -0.0000   -0.0001    0.0158    0.0018   -0.0030   -0.0020    0.0306
    21 C1     3d2+       0.0000   -0.0003    0.0002    0.0005   -0.0001   -0.0162    0.0163   -0.0223    0.0009    0.0236
    22 C2     1s        -0.0000    0.0374    0.9988   -0.0002   -0.0002   -0.0526   -0.0476    0.0075    0.0022    0.0030
    23 C2     2s        -0.0000    0.0008   -0.0002   -0.0009   -0.0006    0.3681    0.4746   -0.1903    0.0975   -0.0295
    24 C2     3s         0.0000    0.0003   -0.0029   -0.0000   -0.0001   -0.0440   -0.0341    0.0022   -0.0046    0.0018
    25 C2     2py       -0.0000   -0.0001   -0.0006   -0.0011   -0.0002   -0.0602   -0.0617    0.2165    0.1522    0.6571
    26 C2     3py        0.0000   -0.0004   -0.0003   -0.0011   -0.0002    0.0116    0.0610   -0.1092   -0.0412   -0.1114
    27 C2     2pz        0.0000   -0.0013    0.0003   -0.0005   -0.0001   -0.0941    0.0703   -0.2647    0.4247   -0.0584
    28 C2     3pz        0.0000   -0.0009    0.0003   -0.0007   -0.0003    0.0363    0.0260   -0.0043   -0.0972    0.0340
    29 C2     3d1-       0.0000   -0.0002   -0.0001    0.0002    0.0001   -0.0038    0.0049   -0.0228    0.0130    0.0117
    30 C2     3d0        0.0000   -0.0000    0.0002    0.0001    0.0002    0.0093   -0.0019    0.0123   -0.0010    0.0445
    31 C2     3d2+      -0.0000    0.0001   -0.0001   -0.0002   -0.0001   -0.0147   -0.0291    0.0202   -0.0034    0.0245
    32 H1     1s        -0.0001    0.0008    0.0012   -0.0027    0.0005    0.0539    0.0388    0.1953    0.2329   -0.2240
    33 H1     2s        -0.0000    0.0002    0.0009   -0.0018    0.0004   -0.0202    0.0591   -0.1245   -0.0188    0.0679
    34 H2     1s        -0.0000    0.0010    0.0007    0.0008    0.0001    0.0579    0.0732    0.0109    0.3142    0.2033
    35 H2     2s        -0.0000    0.0006    0.0000    0.0007    0.0001   -0.0159   -0.0679    0.0797   -0.0540   -0.0518
 
 
      Orbital                11        12
      Energy            -0.4743    0.1456
      Occ. No.           2.0000    0.0000
 
     1 S1     1s        -0.0070   -0.0074
     2 S1     2s        -0.0432   -0.0428
     3 S1     3s        -0.3990   -0.2019
     4 S1     4s        -0.0495   -0.0391
     5 S1     2pz       -0.0133   -0.0071
     6 S1     3pz        0.7265   -0.0883
     7 S1     4pz       -0.0325   -0.1129
     8 S1     3d0        0.0252    0.0179
     9 S1     4d0        0.0045   -0.0080
    10 S1     3d2+      -0.0443    0.0433
    11 S1     4d2+       0.0037    0.0062
    12 C1     1s         0.0058   -0.0927
    13 C1     2s         0.1423   -0.6973
    14 C1     3s         0.0158   -0.2376
    15 C1     2py       -0.2016   -0.5024
    16 C1     3py        0.0310   -0.2712
    17 C1     2pz       -0.3268    0.2663
    18 C1     3pz        0.0458    0.1927
    19 C1     3d1-       0.0362   -0.0002
    20 C1     3d0       -0.0088   -0.0199
    21 C1     3d2+      -0.0122    0.0171
    22 C2     1s         0.0084   -0.1487
    23 C2     2s        -0.1137   -1.0614
    24 C2     3s         0.0036   -0.4025
    25 C2     2py        0.1136   -0.3080
    26 C2     3py       -0.0023   -0.1222
    27 C2     2pz        0.2896   -0.3804
    28 C2     3pz       -0.0114   -0.1206
    29 C2     3d1-       0.0230    0.0036
    30 C2     3d0        0.0177   -0.0166
    31 C2     3d2+       0.0100    0.0226
    32 H1     1s        -0.0591    0.9784
    33 H1     2s         0.0008    0.7067
    34 H2     1s         0.1684    0.9461
    35 H2     2s        -0.0364    0.7268
 
 
 
      Molecular orbitals for symmetry species 2: a2 
 
 
      Orbital                 1         2
      Energy            -0.3198    0.2814
      Occ. No.           1.9055    0.0617
 
     1 S1     3d2-       0.0712   -0.0584
     2 S1     4d2-      -0.0001    0.0067
     3 C1     2px        0.7829   -0.7167
     4 C1     3px        0.0121    0.0203
     5 C1     3d2-      -0.0105   -0.0015
     6 C1     3d1+       0.0134    0.0414
     7 C2     2px        0.5028    1.1263
     8 C2     3px        0.0025   -0.0096
     9 C2     3d2-       0.0394    0.0236
    10 C2     3d1+      -0.0331   -0.0053
 
 
 
      Molecular orbitals for symmetry species 3: b2 
 
 
      Orbital                 1         2         3         4         5         6         7         8
      Energy           -11.2572  -11.2378   -6.6602   -0.9852   -0.7522   -0.5807   -0.5303    0.1470
      Occ. No.           2.0000    2.0000    2.0000    2.0000    2.0000    2.0000    2.0000    0.0000
 
     1 S1     2py        0.0000   -0.0000    0.9999   -0.0109    0.0180    0.0068   -0.0256   -0.0480
     2 S1     3py       -0.0001   -0.0003   -0.0012    0.1273   -0.2088   -0.0462    0.4189   -0.9011
     3 S1     4py       -0.0004   -0.0002   -0.0023   -0.0381    0.0693    0.0486   -0.1190   -0.5445
     4 S1     3d1-      -0.0002   -0.0001    0.0002    0.0516   -0.0462   -0.0249    0.0666    0.0626
     5 S1     4d1-      -0.0001   -0.0001   -0.0010   -0.0041    0.0130    0.0149   -0.0265   -0.0389
     6 C1     1s         0.9988   -0.0366   -0.0001   -0.0481    0.0071    0.0058    0.0084    0.2117
     7 C1     2s        -0.0010    0.0010    0.0000    0.5914   -0.3175   -0.1491   -0.0131    1.5815
     8 C1     3s        -0.0031    0.0005   -0.0007   -0.0360   -0.0100   -0.0095    0.0181    0.6193
     9 C1     2py        0.0004   -0.0006    0.0001    0.0559   -0.1430    0.4953   -0.4601   -0.3867
    10 C1     3py        0.0007   -0.0006    0.0007    0.0682   -0.0125   -0.0477   -0.0282   -0.4847
    11 C1     2pz       -0.0016    0.0000   -0.0022    0.0572    0.3640   -0.2290   -0.4278   -0.3532
    12 C1     3pz       -0.0010   -0.0003   -0.0014   -0.0652   -0.0344    0.0676   -0.0024   -0.0445
    13 C1     3d1-      -0.0001    0.0001   -0.0001   -0.0168   -0.0099   -0.0062    0.0514    0.0079
    14 C1     3d0        0.0000   -0.0001   -0.0000    0.0125    0.0147   -0.0242    0.0236    0.0046
    15 C1     3d2+      -0.0002    0.0002    0.0002   -0.0198    0.0289   -0.0157    0.0135   -0.0260
    16 C2     1s         0.0367    0.9988    0.0001   -0.0387   -0.0258    0.0127    0.0033    0.0206
    17 C2     2s         0.0015   -0.0017    0.0008    0.3571    0.4563    0.0241    0.1101    0.1633
    18 C2     3s         0.0006   -0.0034    0.0004   -0.0319   -0.0051    0.0162    0.0115    0.1105
    19 C2     2py        0.0017    0.0018    0.0010    0.2076    0.2261    0.0731    0.0894   -0.3142
    20 C2     3py        0.0014    0.0016    0.0010    0.0046   -0.0167    0.0085    0.0771   -0.2615
    21 C2     2pz       -0.0020    0.0002   -0.0013   -0.0704    0.2090    0.4611    0.2741    0.4218
    22 C2     3pz       -0.0017    0.0004   -0.0013    0.0942    0.0904   -0.0790   -0.0511    0.2263
    23 C2     3d1-      -0.0003    0.0000   -0.0000   -0.0105    0.0241    0.0454    0.0469    0.0149
    24 C2     3d0        0.0001    0.0004    0.0001    0.0355    0.0286   -0.0135    0.0181   -0.0022
    25 C2     3d2+       0.0002   -0.0003   -0.0000    0.0039   -0.0088   -0.0114    0.0052   -0.0178
    26 H1     1s        -0.0002    0.0001   -0.0004    0.0651   -0.1273    0.2837   -0.1859   -0.0282
    27 H1     2s        -0.0007   -0.0000   -0.0001   -0.0969    0.1001   -0.0762    0.0785   -0.1485
    28 H2     1s         0.0001   -0.0001    0.0003    0.0235    0.1251    0.2687    0.2059    0.0324
    29 H2     2s        -0.0000   -0.0005    0.0003   -0.0748   -0.1565   -0.0732   -0.0651   -0.0594
 
 
 
      Molecular orbitals for symmetry species 4: b1 
 
 
      Orbital                 1         2         3         4
      Energy            -6.6573   -0.4365   -0.4214    0.1631
      Occ. No.           2.0000    1.9955    1.9421    0.0952
 
     1 S1     2px        1.0000   -0.0047   -0.0077    0.0151
     2 S1     3px       -0.0006    0.8895   -0.2601    0.5121
     3 S1     4px        0.0001    0.0003   -0.0543    0.0775
     4 S1     3d1+       0.0001    0.0321    0.0251   -0.0224
     5 S1     4d1+      -0.0006   -0.0031   -0.0042    0.0117
     6 C1     2px        0.0004    0.2524    0.3897   -0.9728
     7 C1     3px       -0.0000   -0.0339   -0.0349    0.0454
     8 C1     3d2-      -0.0003   -0.0245   -0.0118   -0.0122
     9 C1     3d1+      -0.0003   -0.0351    0.0393   -0.0093
    10 C2     2px       -0.0001   -0.0868    0.6973    0.5835
    11 C2     3px        0.0001   -0.0357   -0.0462   -0.0646
    12 C2     3d2-       0.0001    0.0076   -0.0207   -0.0360
    13 C2     3d1+      -0.0000   -0.0138   -0.0176    0.0248
--
 
      Von Neumann Entropy (Root   1) =  0.47481
 

      Mulliken population analysis for root number:  1
      -----------------------------------------------
 
 
++    Molecular charges:
      ------------------
 
      Mulliken charges per centre and basis function type
      ---------------------------------------------------
 
                S1      C1      C2      H1      H2    
      1s       2.0000  1.9994  1.9993  0.6017  0.6206
      2s       2.0007  1.2273  1.1250  0.0407  0.0464
      2px      1.9999  1.0588  1.0070  0.0000  0.0000
      2pz      1.9998  0.9479  1.0108  0.0000  0.0000
      2py      1.9999  1.0780  0.9408  0.0000  0.0000
      3s       1.7585 -0.0069 -0.0076  0.0000  0.0000
      3px      1.7545 -0.0179 -0.0188  0.0000  0.0000
      3pz      1.3196  0.0381  0.0644  0.0000  0.0000
      3py      0.7840  0.0318  0.0605  0.0000  0.0000
      4s      -0.0024  0.0000  0.0000  0.0000  0.0000
      3d2+     0.0212  0.0178  0.0127  0.0000  0.0000
      3d1+     0.0170  0.0313  0.0154  0.0000  0.0000
      3d0      0.0160  0.0245  0.0304  0.0000  0.0000
      3d1-     0.0756  0.0406  0.0464  0.0000  0.0000
      3d2-     0.0425  0.0094  0.0223  0.0000  0.0000
      4px     -0.0256  0.0000  0.0000  0.0000  0.0000
      4pz      0.0008  0.0000  0.0000  0.0000  0.0000
      4py      0.0578  0.0000  0.0000  0.0000  0.0000
      4d2+    -0.0057  0.0000  0.0000  0.0000  0.0000
      4d1+    -0.0031  0.0000  0.0000  0.0000  0.0000
      4d0     -0.0107  0.0000  0.0000  0.0000  0.0000
      4d1-     0.0039  0.0000  0.0000  0.0000  0.0000
      4d2-    -0.0001  0.0000  0.0000  0.0000  0.0000
      Total   15.8040  6.4802  6.3085  0.6423  0.6670
 
      N-E      0.1960 -0.4802 -0.3085  0.3577  0.3330
 
      Total electronic charge=   44.000000
 
      Total            charge=   -0.000000
--
 
 

      Expectation values of various properties for root number:  1
      -----------------------------------------------------------
 
 
++    Molecular properties:
      ---------------------
 
      Charge (e):
                      =   -0.0000
      Dipole Moment (debye):
      Origin of the operator (angstrom)=    0.0000    0.0000    0.0000
                   X=  0.0000E+00               Y=  0.0000E+00               Z=  9.3123E-01           Total=  9.3123E-01
      Quadrupole Moment (debye*angstrom):
      Origin of the operator (angstrom)=    0.0000    0.0000   -0.0000
                  XX= -4.1753E+01              XY=  0.0000E+00              XZ=  0.0000E+00              YY= -3.1848E+01
                  YZ=  0.0000E+00              ZZ= -3.5662E+01
      In traceless form (debye*angstrom)
                  XX= -7.9975E+00              XY=  0.0000E+00              XZ=  0.0000E+00              YY=  6.8590E+00
                  YZ=  0.0000E+00              ZZ=  1.1385E+00
--
 

      LoProp population analysis for root number:  1
      -----------------------------------------------
 
 
++    LoProp analysis:
      ----------------
 
 
 
++    Static properties:
      ------------------
 
 
      LoProp Charges per center
 

                   S1       C1       C2       H1       H2    
      Nuclear     16.0000   6.0000   6.0000   1.0000   1.0000
      Electronic -15.7527  -6.2469  -6.1407  -0.8626  -0.8735
 
      Total        0.2473  -0.2469  -0.1407   0.1374   0.1265
--
 
 
      Natural Bond Order analysis for root number:  1
 
++    Natural Bond Order analysis
      ---------------------------
      Based on LoProp computed density
      -------------------------------------------------------------------------------------
      Atom A:Gen.  Atom B:Gen.  Bond Order
      -------------------------------------------------------------------------------------
      NBO located      0.996 non-bonded electrons on atom S1    :E  
      NBO located      1.000 non-bonded electrons on atom S1    :E  
      NBO located      1.000 non-bonded electrons on atom S1    :E  
      NBO located      0.999 non-bonded electrons on atom S1    :E  
      NBO located      1.000 non-bonded electrons on atom S1    :E  
      The remaining   20.407 electrons are to be considered as diffuse
--
 
--
 
 
      Input file to MOLDEN was generated!
 
      Average orbitals are written to the RASORB file
      Natural orbitals for root   1 are written to the RASORB.1 file
      Spin density orbitals for root   1 are written to the SPDORB.1 file
 
--- Stop Module: rasscf at Fri Dec  5 01:03:52 2025 /rc=_RC_ALL_IS_WELL_ ---
*** files: thipehene-excited.LprOrb thipehene-excited.rasscf.molden thipehene-excited.RasOrb thipehene-excited.RasOrb.1 thipehene-excited.SpdOrb.1 xmldump
    saved to directory /home/charlie/input_examples/molcas/thiphene-excited
--- Module rasscf spent 2 seconds ---

*** symbolic link created: INPORB -> thipehene-excited.RasOrb
--- Start Module: alaska at Fri Dec  5 01:03:55 2025 ---
 
()()()()()()()()()()()()()()()()()()()()()()()()()()()()()()()()()()()()()()()()()()()()()()()()()()

                                              &ALASKA

             launched 10 MPI processes, running in PARALLEL mode (work-sharing enabled)
                       available to each process: 2.0 GB of memory, 1 thread
                                        master pid: 3072782
()()()()()()()()()()()()()()()()()()()()()()()()()()()()()()()()()()()()()()()()()()()()()()()()()()
 
 
                     Threshold for contributions to the gradient: 1.000E-07
 
 
                    ********************************************
                    * Symmetry Adapted Cartesian Displacements *
                    ********************************************
 
 
           Irreducible representation : a1 
           Basis function(s) of irrep: z                                                                               
 
 Basis Label        Type   Center Phase
   1   S1           z         1     1
   2   C1           y         2     1      3    -1
   3   C1           z         2     1      3     1
   4   C2           y         4     1      5    -1
   5   C2           z         4     1      5     1
   6   H1           y         6     1      7    -1
   7   H1           z         6     1      7     1
   8   H2           y         8     1      9    -1
   9   H2           z         8     1      9     1
 
           Irreducible representation : a2 
           Basis function(s) of irrep: xy, Rz, I                                                                       
 
 Basis Label        Type   Center Phase
  10   C1           x         2     1      3    -1
  11   C2           x         4     1      5    -1
  12   H1           x         6     1      7    -1
  13   H2           x         8     1      9    -1
 
           Irreducible representation : b2 
           Basis function(s) of irrep: y, yz, Rx                                                                       
 
 Basis Label        Type   Center Phase
  14   S1           y         1     1
  15   C1           y         2     1      3     1
  16   C1           z         2     1      3    -1
  17   C2           y         4     1      5     1
  18   C2           z         4     1      5    -1
  19   H1           y         6     1      7     1
  20   H1           z         6     1      7    -1
  21   H2           y         8     1      9     1
  22   H2           z         8     1      9    -1
 
           Irreducible representation : b1 
           Basis function(s) of irrep: x, xz, Ry                                                                       
 
 Basis Label        Type   Center Phase
  23   S1           x         1     1
  24   C1           x         2     1      3     1
  25   C2           x         4     1      5     1
  26   H1           x         6     1      7     1
  27   H2           x         8     1      9     1
 
                     No automatic utilization of translational and rotational invariance of the energy is employed.
 
 Conventional ERI gradients!
 Exit Drvg1
 
 **************************************************
 *                                                *
 *              Molecular gradients               *
 *                                                *
 **************************************************
 
  Irreducible representation: a1 
 ------------------------------------------------------------------------------------------
                              X                       Y                       Z
 ------------------------------------------------------------------------------------------
  S1                0.00000000000000E+00    0.00000000000000E+00   -3.01146878527447E-05
  C1                0.00000000000000E+00    6.76637041845396E-05   -3.95393316463544E-05
  C1                0.00000000000000E+00   -6.76637041845396E-05   -3.95393316463544E-05
  C2                0.00000000000000E+00   -1.61767008389546E-04   -6.71673244490023E-06
  C2                0.00000000000000E+00    1.61767008389546E-04   -6.71673244490023E-06
  H1                0.00000000000000E+00   -3.76213594321939E-06    5.56918572822696E-05
  H1                0.00000000000000E+00    3.76213594321939E-06    5.56918572822696E-05
  H2                0.00000000000000E+00    3.13932101612124E-05    5.62155073335902E-06
  H2                0.00000000000000E+00   -3.13932101612124E-05    5.62155073335902E-06
 ------------------------------------------------------------------------------------------
 
--- Stop Module: alaska at Fri Dec  5 01:03:59 2025 /rc=_RC_ALL_IS_WELL_ ---
*** files: xmldump
    saved to directory /home/charlie/input_examples/molcas/thiphene-excited
--- Module alaska spent 4 seconds ---

*** symbolic link created: INPORB -> thipehene-excited.RasOrb
--- Start Module: slapaf at Fri Dec  5 01:04:02 2025 ---
 
()()()()()()()()()()()()()()()()()()()()()()()()()()()()()()()()()()()()()()()()()()()()()()()()()()

                                              &SLAPAF

             launched 10 MPI processes, running in PARALLEL mode (work-sharing enabled)
                       available to each process: 2.0 GB of memory, 1 thread
                                        master pid: 3072910
()()()()()()()()()()()()()()()()()()()()()()()()()()()()()()()()()()()()()()()()()()()()()()()()()()
 
 
 
++       Slapaf input parameters:
         ------------------------
 
 Maximum number of iterations:              2000
 Convergence test a la Schlegel.
 Convergence criterion on gradient/para.<=: 3.0E-04
 Convergence criterion on step/parameter<=: 3.0E-04
 Convergence criterion on energy change <=: 0.0E+00
 Parameters for step-restricted optimization
 Maximum step length (initial seed):       3.00E-01
 
 -RFO activated with parameters:
   Maximum number of data points used in RFO:      5
 Line search is performed
 
 
 -Optimization for minimum.
  Optimization method: RS-RFO.
 
 -Initial Hessian guessed by Hessian Model Function (HMF).
  HMF augmented with weak interactions.
 
 -Hessian update method: Broyden-Fletcher-Goldfarb-Shanno
  Maximum number of points in Hessian update:  5
 
 -Relaxation will be done on non-redundant internal coordinates, based on
  force constant weighted redundant internal coordinates.
 
--
 
 ******************************************
 * Statistics of the internal coordinates *
 ******************************************
 Translations and Rotations:         0
 Bonds                     :         5
 Angles                    :         7
 Torsions                  :         9
 Out-of-plane angles       :         2
 
 
**********************************************************************************************************************
*                                    Energy Statistics for Geometry Optimization                                     *
**********************************************************************************************************************
                       Energy     Grad      Grad              Step                 Estimated   Geom       Hessian     
Iter      Energy       Change     Norm      Max    Element    Max     Element     Final Energy Update Update   Index  
  1   -551.37894603  0.00000000 0.000272  0.000125 nrc007   0.000540  nrc007     -551.37894609 RS-RFO  None      0    
 
       +----------------------------------+----------------------------------+
       +    Cartesian Displacements       +    Gradient in internals         +
       +  Value      Threshold Converged? +  Value      Threshold Converged? +
 +-----+----------------------------------+----------------------------------+
 + RMS + 3.0827E-04  1.2000E-03     Yes   + 9.6101E-05  3.0000E-04     Yes   +
 +-----+----------------------------------+----------------------------------+
 + Max + 5.6661E-04  1.8000E-03     Yes   + 1.2508E-04  4.5000E-04     Yes   +
 +-----+----------------------------------+----------------------------------+
 
 Geometry is converged in   1 iterations to a Minimum Structure
 
*****************************************************************************************************************
*****************************************************************************************************************
 
++ Geometry section
 
********************************************************************************
  Geometrical information of the final structure
********************************************************************************
 
  NOTE: on convergence the final predicted structure will be printed here.
  This is not identical to the structure printed in the head of the output.
 
 *********************************************************
 * Nuclear coordinates of the final structure / bohr     *
 *********************************************************
  ATOM              X               Y               Z     
  S1               0.000000        0.000000       -2.179263
  C1               0.000000        2.342022        0.101577
  C2               0.000000        1.363004        2.487621
  H1               0.000000        4.307476       -0.435590
  H2               0.000000        2.506521        4.178051
 
 
 *********************************************************
 * Nuclear coordinates of the final structure / angstrom *
 *********************************************************
  ATOM              X               Y               Z     
  S1               0.000000        0.000000       -1.153217
  C1               0.000000        1.239345        0.053752
  C2               0.000000        0.721271        1.316392
  H1               0.000000        2.279418       -0.230505
  H2               0.000000        1.326394        2.210929
 
 
                    *************************************** 
                    *    InterNuclear Distances / bohr    * 
[...]
                                         RASSCF iterations: Energy and convergence statistics
                                         ----------------------------------------------------
 
      Iter CI   SX   CI       RASSCF       Energy    max ROT     max BLB   max BLB  Level Ln srch  Step   QN   Walltime
          iter iter root      energy       change     param      element    value   shift minimum  type update hh:mm:ss
 Nr of preliminary CI iterations:   1
        1   1    4    1  -551.37894609    0.00E+00  -1.90E-05    5  14 3 -4.96E-05   0.00   0.00    SX    NO    0:00:00
        2   1    3    1  -551.37894611   -2.01E-08* -7.08E-06    6  10 3 -1.21E-05   0.00   0.00    SX    NO    0:00:00
        3   1    3    1  -551.37894611   -1.62E-09   2.66E-06   10  20 1  5.13E-06   0.00   0.00    SX    NO    0:00:00
        4   1    2    1  -551.37894611   -2.20E-10  -1.27E-06   11  19 1  2.00E-06   0.00   0.00    SX    NO    0:00:00
      Convergence after  4 iterations
        5   1    2    1  -551.37894611   -2.81E-11  -1.27E-06   10  20 1  1.17E-06   0.00   0.00    SX    NO    0:00:00
 
      ************************************************************************************************************************
                                                      Wave function printout:
                       occupation of active orbitals, and spin coupling of open shells (u,d: Spin up or down)
      ************************************************************************************************************************
 
      Note: transformation to natural orbitals
      has been made, which may change the order of the CSFs.
 
      printout of CI-coefficients larger than  0.05 for root  1
      energy=    -551.378946
      conf/sym  22444     Coeff  Weight
             1  22 200   0.09296 0.00864
             7  20 220  -0.96068 0.92290
            10  20 202   0.06322 0.00400
            14  ud 2ud   0.14053 0.01975
            19  02 220   0.06887 0.00474
            25  uu 2dd  -0.10047 0.01010
            28  00 222   0.15845 0.02511
 
      Natural orbitals and occupation numbers for root  1
      sym 2:   1.905526   0.061682
      sym 4:   1.995480   1.942117   0.095195
 
      ************************************************************************************************************************
      *                                                                                                                      *
      *                                                    Final results                                                     *
      *                                                                                                                      *
      ************************************************************************************************************************
 
 
++    Final optimization conditions:
      ------------------------------
 
      Average CI energy                            -551.37894611
      RASSCF energy for state  1                   -551.37894611
      Super-CI energy                                -0.00000000
      RASSCF energy change                           -0.00000000
      Max change in MO coefficients              -2.590E-06
      Max non-diagonal density matrix element    -1.270E-06
      Maximum BLB matrix element                  1.173E-06
      (orbital pair  10,  20 in symmetry   1)
      Norm of electronic gradient            3.657E-06
--
 
 
      Final state energy(ies):
      ------------------------
 
::    RASSCF root number  1 Total energy:   -551.37894611
 
++    Molecular orbitals:
      -------------------
 
      Pseudonatural active orbitals and approximate occupation numbers
 
 
 
 
      Molecular orbitals for symmetry species 1: a1 
 
 
      Orbital                 1         2         3         4         5         6         7         8         9        10
      Energy           -91.9731  -11.2571  -11.2387   -8.9784   -6.6592   -1.1678   -0.9818   -0.7682   -0.6977   -0.5498
      Occ. No.           2.0000    2.0000    2.0000    2.0000    2.0000    2.0000    2.0000    2.0000    2.0000    2.0000
 
     1 S1     1s         0.9990    0.0000   -0.0000    0.0447   -0.0003   -0.0040    0.0036    0.0007    0.0012    0.0019
     2 S1     2s        -0.0447    0.0003   -0.0000    0.9993   -0.0055   -0.0265    0.0231    0.0035    0.0080    0.0121
     3 S1     3s        -0.0000    0.0007   -0.0001    0.0014    0.0002    0.3626   -0.5826   -0.4037    0.2311    0.1800
     4 S1     4s        -0.0000    0.0001   -0.0000   -0.0008   -0.0014   -0.0134    0.0100   -0.0009    0.0095    0.0167
     5 S1     2pz        0.0001    0.0000   -0.0000    0.0053    0.9999   -0.0144    0.0085    0.0020    0.0073    0.0011
     6 S1     3pz       -0.0000   -0.0000   -0.0004    0.0002   -0.0015    0.0854   -0.0438    0.0638   -0.1747   -0.0441
     7 S1     4pz       -0.0000   -0.0002   -0.0004   -0.0014   -0.0013   -0.0375    0.0198   -0.0040    0.0199    0.0049
     8 S1     3d0       -0.0000   -0.0003   -0.0001    0.0000   -0.0001    0.0103   -0.0084   -0.0030   -0.0304    0.0170
     9 S1     4d0       -0.0000   -0.0003   -0.0002   -0.0003   -0.0012   -0.0098   -0.0056    0.0028    0.0043   -0.0024
    10 S1     3d2+       0.0000    0.0001   -0.0001    0.0000   -0.0001   -0.0124    0.0108   -0.0043   -0.0051    0.0199
    11 S1     4d2+       0.0000    0.0001   -0.0001    0.0008   -0.0001    0.0092   -0.0098    0.0058    0.0003   -0.0016
    12 C1     1s         0.0000    0.9990   -0.0375    0.0005    0.0001   -0.0427    0.0025   -0.0239    0.0083   -0.0116
    13 C1     2s         0.0001   -0.0001    0.0012    0.0031    0.0013    0.4250   -0.1176    0.4673    0.0061   -0.0803
    14 C1     3s         0.0000   -0.0026    0.0007    0.0011    0.0001   -0.0250   -0.0085   -0.0101    0.0054   -0.0222
    15 C1     2py        0.0000   -0.0001   -0.0010    0.0018   -0.0014   -0.1044   -0.0185    0.3357    0.2833   -0.2511
    16 C1     3py        0.0000    0.0003   -0.0009    0.0018   -0.0003    0.0397   -0.0656    0.0135   -0.0889    0.0160
    17 C1     2pz        0.0000   -0.0002    0.0014    0.0001    0.0002    0.0353    0.2452    0.0671   -0.1591    0.3278
    18 C1     3pz       -0.0000    0.0003    0.0011    0.0002    0.0009   -0.0044   -0.0435   -0.0460    0.0575   -0.0372
    19 C1     3d1-      -0.0000   -0.0002   -0.0000   -0.0012   -0.0000   -0.0003   -0.0342   -0.0286    0.0081    0.0201
    20 C1     3d0       -0.0000    0.0000    0.0000   -0.0000   -0.0001    0.0158    0.0018   -0.0030   -0.0020    0.0306
    21 C1     3d2+       0.0000   -0.0003    0.0002    0.0005   -0.0001   -0.0162    0.0163   -0.0223    0.0009    0.0236
    22 C2     1s        -0.0000    0.0375    0.9988   -0.0002   -0.0002   -0.0526   -0.0476    0.0075    0.0022    0.0030
    23 C2     2s        -0.0000    0.0008   -0.0002   -0.0009   -0.0006    0.3680    0.4746   -0.1903    0.0975   -0.0295
    24 C2     3s         0.0000    0.0003   -0.0029   -0.0000   -0.0001   -0.0440   -0.0341    0.0022   -0.0046    0.0018
    25 C2     2py       -0.0000   -0.0001   -0.0006   -0.0011   -0.0002   -0.0602   -0.0617    0.2165    0.1522    0.6571
    26 C2     3py        0.0000   -0.0004   -0.0003   -0.0011   -0.0002    0.0116    0.0610   -0.1092   -0.0412   -0.1113
    27 C2     2pz        0.0000   -0.0013    0.0003   -0.0005   -0.0001   -0.0941    0.0703   -0.2647    0.4246   -0.0584
    28 C2     3pz        0.0000   -0.0009    0.0003   -0.0007   -0.0003    0.0363    0.0260   -0.0043   -0.0972    0.0340
    29 C2     3d1-       0.0000   -0.0002   -0.0001    0.0002    0.0001   -0.0038    0.0049   -0.0228    0.0130    0.0117
    30 C2     3d0        0.0000   -0.0000    0.0002    0.0001    0.0002    0.0093   -0.0019    0.0123   -0.0010    0.0445
    31 C2     3d2+      -0.0000    0.0001   -0.0001   -0.0002   -0.0001   -0.0147   -0.0291    0.0202   -0.0034    0.0245
    32 H1     1s        -0.0001    0.0008    0.0012   -0.0027    0.0005    0.0539    0.0388    0.1953    0.2330   -0.2239
    33 H1     2s        -0.0000    0.0002    0.0009   -0.0018    0.0004   -0.0202    0.0591   -0.1245   -0.0188    0.0679
    34 H2     1s        -0.0000    0.0010    0.0007    0.0008    0.0001    0.0579    0.0732    0.0108    0.3142    0.2032
    35 H2     2s        -0.0000    0.0006    0.0000    0.0007    0.0001   -0.0159   -0.0679    0.0797   -0.0540   -0.0518
 
 
      Orbital                11        12
      Energy            -0.4743    0.1456
      Occ. No.           2.0000    0.0000
 
     1 S1     1s        -0.0070   -0.0074
     2 S1     2s        -0.0432   -0.0429
     3 S1     3s        -0.3990   -0.2020
     4 S1     4s        -0.0495   -0.0391
     5 S1     2pz       -0.0133   -0.0071
     6 S1     3pz        0.7265   -0.0884
     7 S1     4pz       -0.0325   -0.1130
     8 S1     3d0        0.0252    0.0179
     9 S1     4d0        0.0045   -0.0080
    10 S1     3d2+      -0.0443    0.0433
    11 S1     4d2+       0.0037    0.0062
    12 C1     1s         0.0058   -0.0927
    13 C1     2s         0.1423   -0.6971
    14 C1     3s         0.0158   -0.2375
    15 C1     2py       -0.2017   -0.5025
    16 C1     3py        0.0310   -0.2712
    17 C1     2pz       -0.3267    0.2664
    18 C1     3pz        0.0458    0.1928
    19 C1     3d1-       0.0362   -0.0002
    20 C1     3d0       -0.0088   -0.0199
    21 C1     3d2+      -0.0122    0.0171
    22 C2     1s         0.0084   -0.1488
    23 C2     2s        -0.1137   -1.0615
    24 C2     3s         0.0036   -0.4025
    25 C2     2py        0.1137   -0.3080
    26 C2     3py       -0.0023   -0.1221
    27 C2     2pz        0.2896   -0.3804
    28 C2     3pz       -0.0114   -0.1206
    29 C2     3d1-       0.0230    0.0036
    30 C2     3d0        0.0177   -0.0166
    31 C2     3d2+       0.0100    0.0226
    32 H1     1s        -0.0591    0.9784
    33 H1     2s         0.0008    0.7067
    34 H2     1s         0.1684    0.9461
    35 H2     2s        -0.0365    0.7268
 
 
 
      Molecular orbitals for symmetry species 2: a2 
 
 
      Orbital                 1         2
      Energy            -0.3198    0.2814
      Occ. No.           1.9055    0.0617
 
     1 S1     3d2-       0.0712   -0.0584
     2 S1     4d2-      -0.0001    0.0067
     3 C1     2px        0.7828   -0.7167
     4 C1     3px        0.0121    0.0203
     5 C1     3d2-      -0.0105   -0.0015
     6 C1     3d1+       0.0134    0.0414
     7 C2     2px        0.5029    1.1262
     8 C2     3px        0.0025   -0.0096
     9 C2     3d2-       0.0394    0.0236
    10 C2     3d1+      -0.0331   -0.0053
 
 
 
      Molecular orbitals for symmetry species 3: b2 
 
 
      Orbital                 1         2         3         4         5         6         7         8
      Energy           -11.2572  -11.2378   -6.6602   -0.9852   -0.7522   -0.5807   -0.5303    0.1470
      Occ. No.           2.0000    2.0000    2.0000    2.0000    2.0000    2.0000    2.0000    0.0000
 
     1 S1     2py        0.0000   -0.0000    0.9999   -0.0109    0.0180    0.0068   -0.0256   -0.0480
     2 S1     3py       -0.0001   -0.0003   -0.0012    0.1273   -0.2088   -0.0459    0.4189   -0.9011
     3 S1     4py       -0.0004   -0.0002   -0.0023   -0.0381    0.0693    0.0485   -0.1190   -0.5444
     4 S1     3d1-      -0.0002   -0.0001    0.0002    0.0516   -0.0462   -0.0249    0.0667    0.0626
     5 S1     4d1-      -0.0001   -0.0001   -0.0010   -0.0041    0.0130    0.0149   -0.0265   -0.0389
     6 C1     1s         0.9988   -0.0366   -0.0001   -0.0481    0.0071    0.0058    0.0084    0.2117
     7 C1     2s        -0.0010    0.0010    0.0000    0.5914   -0.3174   -0.1491   -0.0131    1.5815
     8 C1     3s        -0.0031    0.0005   -0.0007   -0.0360   -0.0099   -0.0095    0.0181    0.6193
     9 C1     2py        0.0004   -0.0006    0.0001    0.0559   -0.1430    0.4950   -0.4606   -0.3866
    10 C1     3py        0.0007   -0.0006    0.0007    0.0682   -0.0125   -0.0477   -0.0282   -0.4846
    11 C1     2pz       -0.0016    0.0000   -0.0022    0.0571    0.3641   -0.2293   -0.4275   -0.3532
    12 C1     3pz       -0.0010   -0.0003   -0.0014   -0.0653   -0.0344    0.0676   -0.0024   -0.0445
    13 C1     3d1-      -0.0001    0.0001   -0.0001   -0.0168   -0.0099   -0.0061    0.0514    0.0079
    14 C1     3d0        0.0000   -0.0001   -0.0000    0.0125    0.0146   -0.0242    0.0236    0.0046
    15 C1     3d2+      -0.0002    0.0002    0.0002   -0.0197    0.0289   -0.0157    0.0135   -0.0260
    16 C2     1s         0.0367    0.9988    0.0001   -0.0387   -0.0258    0.0127    0.0033    0.0206
    17 C2     2s         0.0015   -0.0017    0.0008    0.3572    0.4563    0.0242    0.1100    0.1633
    18 C2     3s         0.0006   -0.0034    0.0004   -0.0319   -0.0051    0.0162    0.0115    0.1105
    19 C2     2py        0.0017    0.0018    0.0010    0.2076    0.2260    0.0732    0.0894   -0.3143
    20 C2     3py        0.0014    0.0016    0.0010    0.0047   -0.0167    0.0086    0.0771   -0.2616
    21 C2     2pz       -0.0020    0.0002   -0.0013   -0.0704    0.2090    0.4613    0.2738    0.4217
    22 C2     3pz       -0.0017    0.0004   -0.0013    0.0942    0.0904   -0.0790   -0.0511    0.2262
    23 C2     3d1-      -0.0003    0.0000   -0.0000   -0.0105    0.0241    0.0454    0.0469    0.0149
    24 C2     3d0        0.0001    0.0004    0.0001    0.0355    0.0287   -0.0134    0.0181   -0.0022
    25 C2     3d2+       0.0002   -0.0003   -0.0000    0.0039   -0.0088   -0.0114    0.0053   -0.0178
    26 H1     1s        -0.0002    0.0001   -0.0004    0.0651   -0.1273    0.2836   -0.1862   -0.0282
    27 H1     2s        -0.0007   -0.0000   -0.0001   -0.0969    0.1001   -0.0761    0.0786   -0.1485
    28 H2     1s         0.0001   -0.0001    0.0003    0.0235    0.1251    0.2688    0.2057    0.0324
    29 H2     2s        -0.0000   -0.0005    0.0003   -0.0748   -0.1565   -0.0732   -0.0650   -0.0593
 
 
 
      Molecular orbitals for symmetry species 4: b1 
 
 
      Orbital                 1         2         3         4
      Energy            -6.6572   -0.4365   -0.4213    0.1631
      Occ. No.           2.0000    1.9955    1.9421    0.0952
 
     1 S1     2px        1.0000   -0.0047   -0.0077    0.0151
     2 S1     3px       -0.0006    0.8894   -0.2601    0.5121
     3 S1     4px        0.0001    0.0003   -0.0543    0.0775
     4 S1     3d1+       0.0001    0.0321    0.0251   -0.0225
     5 S1     4d1+      -0.0006   -0.0031   -0.0042    0.0117
     6 C1     2px        0.0004    0.2524    0.3897   -0.9728
     7 C1     3px       -0.0000   -0.0339   -0.0349    0.0454
     8 C1     3d2-      -0.0003   -0.0245   -0.0118   -0.0122
     9 C1     3d1+      -0.0003   -0.0351    0.0393   -0.0093
    10 C2     2px       -0.0001   -0.0868    0.6973    0.5836
    11 C2     3px        0.0001   -0.0357   -0.0462   -0.0647
    12 C2     3d2-       0.0001    0.0076   -0.0207   -0.0360
    13 C2     3d1+      -0.0000   -0.0138   -0.0176    0.0248
--
 
      Von Neumann Entropy (Root   1) =  0.47480
 

      Mulliken population analysis for root number:  1
      -----------------------------------------------
 
 
++    Molecular charges:
      ------------------
 
      Mulliken charges per centre and basis function type
      ---------------------------------------------------
 
                S1      C1      C2      H1      H2    
      1s       2.0000  1.9994  1.9993  0.6017  0.6206
      2s       2.0007  1.2273  1.1250  0.0407  0.0464
      2px      1.9999  1.0588  1.0070  0.0000  0.0000
      2pz      1.9998  0.9479  1.0108  0.0000  0.0000
      2py      1.9999  1.0780  0.9408  0.0000  0.0000
      3s       1.7584 -0.0069 -0.0076  0.0000  0.0000
      3px      1.7545 -0.0179 -0.0188  0.0000  0.0000
      3pz      1.3196  0.0382  0.0645  0.0000  0.0000
      3py      0.7840  0.0318  0.0604  0.0000  0.0000
      4s      -0.0024  0.0000  0.0000  0.0000  0.0000
      3d2+     0.0212  0.0178  0.0127  0.0000  0.0000
      3d1+     0.0170  0.0313  0.0154  0.0000  0.0000
      3d0      0.0160  0.0244  0.0304  0.0000  0.0000
      3d1-     0.0756  0.0406  0.0464  0.0000  0.0000
      3d2-     0.0425  0.0094  0.0223  0.0000  0.0000
      4px     -0.0256  0.0000  0.0000  0.0000  0.0000
      4pz      0.0008  0.0000  0.0000  0.0000  0.0000
      4py      0.0578  0.0000  0.0000  0.0000  0.0000
      4d2+    -0.0057  0.0000  0.0000  0.0000  0.0000
      4d1+    -0.0031  0.0000  0.0000  0.0000  0.0000
      4d0     -0.0107  0.0000  0.0000  0.0000  0.0000
      4d1-     0.0039  0.0000  0.0000  0.0000  0.0000
      4d2-    -0.0001  0.0000  0.0000  0.0000  0.0000
      Total   15.8039  6.4802  6.3085  0.6423  0.6670
 
      N-E      0.1961 -0.4802 -0.3085  0.3577  0.3330
 
      Total electronic charge=   44.000000
 
      Total            charge=   -0.000000
--
 
 

      Expectation values of various properties for root number:  1
      -----------------------------------------------------------
 
 
++    Molecular properties:
      ---------------------
 
      Charge (e):
                      =   -0.0000
      Dipole Moment (debye):
      Origin of the operator (angstrom)=    0.0000    0.0000    0.0000
                   X=  0.0000E+00               Y=  0.0000E+00               Z=  9.3095E-01           Total=  9.3095E-01
      Quadrupole Moment (debye*angstrom):
      Origin of the operator (angstrom)=    0.0000    0.0000    0.0001
                  XX= -4.1753E+01              XY=  0.0000E+00              XZ=  0.0000E+00              YY= -3.1850E+01
                  YZ=  0.0000E+00              ZZ= -3.5661E+01
      In traceless form (debye*angstrom)
                  XX= -7.9974E+00              XY=  0.0000E+00              XZ=  0.0000E+00              YY=  6.8569E+00
                  YZ=  0.0000E+00              ZZ=  1.1405E+00
--
 

      LoProp population analysis for root number:  1
      -----------------------------------------------
 
 
++    LoProp analysis:
      ----------------
 
 
 
++    Static properties:
      ------------------
 
 
      LoProp Charges per center
 

                   S1       C1       C2       H1       H2    
      Nuclear     16.0000   6.0000   6.0000   1.0000   1.0000
      Electronic -15.7526  -6.2469  -6.1407  -0.8626  -0.8735
 
      Total        0.2474  -0.2469  -0.1407   0.1374   0.1265
--
 
 
      Natural Bond Order analysis for root number:  1
 
++    Natural Bond Order analysis
      ---------------------------
      Based on LoProp computed density
      -------------------------------------------------------------------------------------
      Atom A:Gen.  Atom B:Gen.  Bond Order
      -------------------------------------------------------------------------------------
      NBO located      0.996 non-bonded electrons on atom S1    :E  
      NBO located      1.000 non-bonded electrons on atom S1    :E  
      NBO located      1.000 non-bonded electrons on atom S1    :E  
      NBO located      0.999 non-bonded electrons on atom S1    :E  
      NBO located      1.000 non-bonded electrons on atom S1    :E  
      The remaining   20.407 electrons are to be considered as diffuse
--
 
--
 
 
      Input file to MOLDEN was generated!
 
      Average orbitals are written to the RASORB file
      Natural orbitals for root   1 are written to the RASORB.1 file
      Spin density orbitals for root   1 are written to the SPDORB.1 file
 
--- Stop Module: last_energy at Fri Dec  5 01:04:10 2025 /rc=_RC_ALL_IS_WELL_ ---
*** files: thipehene-excited.GssOrb thipehene-excited.LprOrb thipehene-excited.rasscf.molden thipehene-excited.guessorb.molden thipehene-excited.RasOrb thipehene-excited.RasOrb.1
           thipehene-excited.SpdOrb.1 xmldump
    saved to directory /home/charlie/input_examples/molcas/thiphene-excited
--- Module last_energy spent 3 seconds ---

>>> END DO

.##################.
.# Happy landing! #.
.##################.

    Timing: Wall=19.37 User=51.84 System=14.62
