[Molden Format]
[N_Atoms]
 9
[Atoms] (AU)
S1          1     16           0.00000000      0.00000000     -2.17926347
C1          2      6           0.00000000      2.34202222      0.10157674
C1          3      6           0.00000000     -2.34202222      0.10157674
C2          4      6           0.00000000      1.36300442      2.48762088
C2          5      6           0.00000000     -1.36300442      2.48762088
H1          6      1           0.00000000      4.30747580     -0.43559049
H1          7      1           0.00000000     -4.30747580     -0.43559049
H2          8      1           0.00000000      2.50652118      4.17805090
H2          9      1           0.00000000     -2.50652118      4.17805090
[5D]
[Charge] (Mulliken)
 0.196053148283900
 -0.960380407928108
 -0.960380407928108
 -0.617027856514129
 -0.617027856514129
 0.715307274982200
 0.715307274982200
 0.666047841175844
 0.666047841175844
[GTO] (AU)
   1
   s  13
  9.341339600E+04  3.024400009E-04
  1.396165700E+04  2.359690007E-03
  3.169909800E+03  1.219093004E-02
  9.024563400E+02  4.837344015E-02
  2.971584200E+02  1.487256904E-01
  1.087020100E+02  3.264560810E-01
  4.315529900E+01  3.989518812E-01
  1.810794800E+01  1.813913105E-01
  5.570471700E+00  3.603423011E-02
  2.142716400E+00  2.477362007E-02
  4.339943000E-01  2.332840007E-03
  1.570169200E-01 -9.991000030E-04
  5.495592000E-02  3.022100009E-04
   s  13
  9.341339600E+04 -9.859999656E-05
  1.396165700E+04 -7.647999733E-04
  3.169909800E+03 -4.015399860E-03
  9.024563400E+02 -1.598899944E-02
  2.971584200E+02 -5.276519816E-02
  1.087020100E+02 -1.273787956E-01
  4.315529900E+01 -2.238092922E-01
  1.810794800E+01 -9.887609655E-02
  5.570471700E+00  5.295235815E-01
  2.142716400E+00  5.869960795E-01
  4.339943000E-01  4.070764858E-02
  1.570169200E-01 -1.468439949E-02
  5.495592000E-02  4.348479848E-03
   s  13
  9.341339600E+04  2.485000009E-05
  1.396165700E+04  1.933100007E-04
  3.169909800E+03  1.013120004E-03
  9.024563400E+02  4.071930015E-03
  2.971584200E+02  1.352557005E-02
  1.087020100E+02  3.398686013E-02
  4.315529900E+01  6.265824023E-02
  1.810794800E+01  3.168168012E-02
  5.570471700E+00 -2.185153008E-01
  2.142716400E+00 -3.910601015E-01
  4.339943000E-01  6.637445225E-01
  1.570169200E-01  5.170704719E-01
  5.495592000E-02  2.044077008E-02
   s  13
  9.341339600E+04 -2.490000090E-05
  1.396165700E+04 -1.975000072E-04
  3.169909800E+03 -1.003000036E-03
  9.024563400E+02 -4.213600153E-03
  2.971584200E+02 -1.321190048E-02
  1.087020100E+02 -3.626240132E-02
  4.315529900E+01 -5.921470215E-02
  1.810794800E+01 -4.256220155E-02
  5.570471700E+00  2.851211704E-01
  2.142716400E+00  3.718777735E-01
  4.339943000E-01 -1.813683066E+00
  1.570169200E-01  1.258146946E+00
  5.495592000E-02  4.015733846E-01
   p  10
  4.950399900E+02  3.118750001E-03
  1.172211900E+02  2.421577001E-02
  3.750655800E+01  1.059524500E-01
  1.390996800E+01  2.827273401E-01
  5.504501500E+00  4.386969902E-01
  2.243281200E+00  3.147313601E-01
  7.761799200E-01  4.594114002E-02
  2.918704700E-01 -4.957200002E-03
  1.028670000E-01  2.484690001E-03
  3.600345000E-02 -6.772000003E-04
   p  10
  4.950399900E+02 -7.998999997E-04
  1.172211900E+02 -6.197899998E-03
  3.750655800E+01 -2.802529999E-02
  1.390996800E+01 -7.609969997E-02
  5.504501500E+00 -1.276894000E-01
  2.243281200E+00 -7.596879997E-02
  7.761799200E-01  2.850671299E-01
  2.918704700E-01  5.509395898E-01
  1.028670000E-01  3.012694699E-01
  3.600345000E-02  4.803267998E-02
   p  10
  4.950399900E+02  6.901800088E-04
  1.172211900E+02  5.604610071E-03
  3.750655800E+01  2.403047031E-02
  1.390996800E+01  7.093891090E-02
  5.504501500E+00  1.027875213E-01
  2.243281200E+00  1.045433813E-01
  7.761799200E-01 -4.699045060E-01
  2.918704700E-01 -4.719365060E-01
  1.028670000E-01  6.846435887E-01
  3.600345000E-02  4.733040660E-01
   d   4
  1.250000000E+00  1.954657303E-01
  5.040000000E-01  5.479528607E-01
  2.030000000E-01  3.803736505E-01
  7.105000000E-02  3.863999005E-02
   d   4
  1.250000000E+00 -4.016739095E-01
  5.040000000E-01 -6.255475148E-01
  2.030000000E-01  9.182836017E-01
  7.105000000E-02  2.476390059E-01
 
   2
   s  10
  5.240635300E+03  9.370599866E-04
  7.822047900E+02  7.228659896E-03
  1.783508300E+02  3.634369948E-02
  5.081594200E+01  1.306288781E-01
  1.682356200E+01  3.188985054E-01
  6.175776000E+00  4.390794037E-01
  2.418049000E+00  2.144773669E-01
  5.119000000E-01  9.529119863E-03
  1.565900000E-01 -2.422299965E-03
  5.480600000E-02  8.592699877E-04
   s  10
  5.240635300E+03 -2.013999970E-04
  7.822047900E+02 -1.591299976E-03
  1.783508300E+02 -7.857899883E-03
  5.081594200E+01 -3.078559954E-02
  1.682356200E+01 -7.776049884E-02
  6.175776000E+00 -1.654797975E-01
  2.418049000E+00 -9.353159860E-02
  5.119000000E-01  5.910679012E-01
  1.565900000E-01  5.101798424E-01
  5.480600000E-02  3.602094946E-02
   s  10
  5.240635300E+03  1.894800270E-04
  7.822047900E+02  1.599170228E-03
  1.783508300E+02  7.158711020E-03
  5.081594200E+01  3.255102464E-02
  1.682356200E+01  6.671215950E-02
  6.175776000E+00  2.107147000E-01
  2.418049000E+00  1.606341229E-02
  5.119000000E-01 -1.206081172E+00
  1.565900000E-01  6.235919888E-01
  5.480600000E-02  6.755538762E-01
   p   6
  1.884180000E+01  1.363248000E-02
  4.159240000E+00  8.381052999E-02
  1.206710000E+00  2.857919499E-01
  3.855400000E-01  4.864161999E-01
  1.219400000E-01  3.147641699E-01
  4.267900000E-02  9.093436998E-02
   p   6
  1.884180000E+01 -1.270119972E-02
  4.159240000E+00 -6.726639849E-02
  1.206710000E+00 -3.404230924E-01
  3.855400000E-01 -3.747774916E-01
  1.219400000E-01  4.228405505E-01
  4.267900000E-02  6.428391056E-01
   d   3
  1.283800000E+00  3.208788489E-01
  3.440000000E-01  7.233137275E-01
  9.220000000E-02  1.572138094E-01
 
   3
   s  10
  5.240635300E+03  9.370599866E-04
  7.822047900E+02  7.228659896E-03
  1.783508300E+02  3.634369948E-02
  5.081594200E+01  1.306288781E-01
  1.682356200E+01  3.188985054E-01
  6.175776000E+00  4.390794037E-01
  2.418049000E+00  2.144773669E-01
  5.119000000E-01  9.529119863E-03
  1.565900000E-01 -2.422299965E-03
  5.480600000E-02  8.592699877E-04
   s  10
  5.240635300E+03 -2.013999970E-04
  7.822047900E+02 -1.591299976E-03
  1.783508300E+02 -7.857899883E-03
  5.081594200E+01 -3.078559954E-02
  1.682356200E+01 -7.776049884E-02
  6.175776000E+00 -1.654797975E-01
  2.418049000E+00 -9.353159860E-02
  5.119000000E-01  5.910679012E-01
  1.565900000E-01  5.101798424E-01
  5.480600000E-02  3.602094946E-02
   s  10
  5.240635300E+03  1.894800270E-04
  7.822047900E+02  1.599170228E-03
  1.783508300E+02  7.158711020E-03
  5.081594200E+01  3.255102464E-02
  1.682356200E+01  6.671215950E-02
  6.175776000E+00  2.107147000E-01
  2.418049000E+00  1.606341229E-02
  5.119000000E-01 -1.206081172E+00
  1.565900000E-01  6.235919888E-01
  5.480600000E-02  6.755538762E-01
   p   6
  1.884180000E+01  1.363248000E-02
  4.159240000E+00  8.381052999E-02
  1.206710000E+00  2.857919499E-01
  3.855400000E-01  4.864161999E-01
  1.219400000E-01  3.147641699E-01
  4.267900000E-02  9.093436998E-02
   p   6
  1.884180000E+01 -1.270119972E-02
  4.159240000E+00 -6.726639849E-02
  1.206710000E+00 -3.404230924E-01
  3.855400000E-01 -3.747774916E-01
  1.219400000E-01  4.228405505E-01
  4.267900000E-02  6.428391056E-01
   d   3
  1.283800000E+00  3.208788489E-01
  3.440000000E-01  7.233137275E-01
  9.220000000E-02  1.572138094E-01
 
   4
   s  10
  5.240635300E+03  9.370599866E-04
  7.822047900E+02  7.228659896E-03
  1.783508300E+02  3.634369948E-02
  5.081594200E+01  1.306288781E-01
  1.682356200E+01  3.188985054E-01
  6.175776000E+00  4.390794037E-01
  2.418049000E+00  2.144773669E-01
  5.119000000E-01  9.529119863E-03
  1.565900000E-01 -2.422299965E-03
  5.480600000E-02  8.592699877E-04
   s  10
  5.240635300E+03 -2.013999970E-04
  7.822047900E+02 -1.591299976E-03
  1.783508300E+02 -7.857899883E-03
  5.081594200E+01 -3.078559954E-02
  1.682356200E+01 -7.776049884E-02
  6.175776000E+00 -1.654797975E-01
  2.418049000E+00 -9.353159860E-02
  5.119000000E-01  5.910679012E-01
  1.565900000E-01  5.101798424E-01
  5.480600000E-02  3.602094946E-02
   s  10
  5.240635300E+03  1.894800270E-04
  7.822047900E+02  1.599170228E-03
  1.783508300E+02  7.158711020E-03
  5.081594200E+01  3.255102464E-02
  1.682356200E+01  6.671215950E-02
  6.175776000E+00  2.107147000E-01
  2.418049000E+00  1.606341229E-02
  5.119000000E-01 -1.206081172E+00
  1.565900000E-01  6.235919888E-01
  5.480600000E-02  6.755538762E-01
   p   6
  1.884180000E+01  1.363248000E-02
  4.159240000E+00  8.381052999E-02
  1.206710000E+00  2.857919499E-01
  3.855400000E-01  4.864161999E-01
  1.219400000E-01  3.147641699E-01
  4.267900000E-02  9.093436998E-02
   p   6
  1.884180000E+01 -1.270119972E-02
  4.159240000E+00 -6.726639849E-02
  1.206710000E+00 -3.404230924E-01
  3.855400000E-01 -3.747774916E-01
  1.219400000E-01  4.228405505E-01
  4.267900000E-02  6.428391056E-01
   d   3
  1.283800000E+00  3.208788489E-01
  3.440000000E-01  7.233137275E-01
  9.220000000E-02  1.572138094E-01
 
   5
   s  10
  5.240635300E+03  9.370599866E-04
  7.822047900E+02  7.228659896E-03
  1.783508300E+02  3.634369948E-02
  5.081594200E+01  1.306288781E-01
  1.682356200E+01  3.188985054E-01
  6.175776000E+00  4.390794037E-01
  2.418049000E+00  2.144773669E-01
  5.119000000E-01  9.529119863E-03
  1.565900000E-01 -2.422299965E-03
  5.480600000E-02  8.592699877E-04
   s  10
  5.240635300E+03 -2.013999970E-04
  7.822047900E+02 -1.591299976E-03
  1.783508300E+02 -7.857899883E-03
  5.081594200E+01 -3.078559954E-02
  1.682356200E+01 -7.776049884E-02
  6.175776000E+00 -1.654797975E-01
  2.418049000E+00 -9.353159860E-02
  5.119000000E-01  5.910679012E-01
  1.565900000E-01  5.101798424E-01
  5.480600000E-02  3.602094946E-02
   s  10
  5.240635300E+03  1.894800270E-04
  7.822047900E+02  1.599170228E-03
  1.783508300E+02  7.158711020E-03
  5.081594200E+01  3.255102464E-02
  1.682356200E+01  6.671215950E-02
  6.175776000E+00  2.107147000E-01
  2.418049000E+00  1.606341229E-02
  5.119000000E-01 -1.206081172E+00
  1.565900000E-01  6.235919888E-01
  5.480600000E-02  6.755538762E-01
   p   6
  1.884180000E+01  1.363248000E-02
  4.159240000E+00  8.381052999E-02
  1.206710000E+00  2.857919499E-01
  3.855400000E-01  4.864161999E-01
  1.219400000E-01  3.147641699E-01
  4.267900000E-02  9.093436998E-02
   p   6
  1.884180000E+01 -1.270119972E-02
  4.159240000E+00 -6.726639849E-02
  1.206710000E+00 -3.404230924E-01
  3.855400000E-01 -3.747774916E-01
  1.219400000E-01  4.228405505E-01
  4.267900000E-02  6.428391056E-01
   d   3
  1.283800000E+00  3.208788489E-01
  3.440000000E-01  7.233137275E-01
  9.220000000E-02  1.572138094E-01
 
   6
   s   7
  8.263637400E+01  2.564129993E-03
  1.240955800E+01  1.921260995E-02
  2.823854000E+00  9.505117973E-02
  7.976700000E-01  3.018678192E-01
  2.580530000E-01  4.874459186E-01
  8.989100000E-02  2.354794293E-01
  3.146200000E-02  1.577775996E-02
   s   7
  8.263637400E+01 -4.600800043E-03
  1.240955800E+01 -3.244470030E-02
  2.823854000E+00 -1.710737016E-01
  7.976700000E-01 -5.048672047E-01
  2.580530000E-01 -9.489200089E-02
  8.989100000E-02  3.708555135E-01
  3.146200000E-02  6.556513461E-01
 
   7
   s   7
  8.263637400E+01  2.564129993E-03
  1.240955800E+01  1.921260995E-02
  2.823854000E+00  9.505117973E-02
  7.976700000E-01  3.018678192E-01
  2.580530000E-01  4.874459186E-01
  8.989100000E-02  2.354794293E-01
  3.146200000E-02  1.577775996E-02
   s   7
  8.263637400E+01 -4.600800043E-03
  1.240955800E+01 -3.244470030E-02
  2.823854000E+00 -1.710737016E-01
  7.976700000E-01 -5.048672047E-01
  2.580530000E-01 -9.489200089E-02
  8.989100000E-02  3.708555135E-01
  3.146200000E-02  6.556513461E-01
 
   8
   s   7
  8.263637400E+01  2.564129993E-03
  1.240955800E+01  1.921260995E-02
  2.823854000E+00  9.505117973E-02
  7.976700000E-01  3.018678192E-01
  2.580530000E-01  4.874459186E-01
  8.989100000E-02  2.354794293E-01
  3.146200000E-02  1.577775996E-02
   s   7
  8.263637400E+01 -4.600800043E-03
  1.240955800E+01 -3.244470030E-02
  2.823854000E+00 -1.710737016E-01
  7.976700000E-01 -5.048672047E-01
  2.580530000E-01 -9.489200089E-02
  8.989100000E-02  3.708555135E-01
  3.146200000E-02  6.556513461E-01
 
   9
   s   7
  8.263637400E+01  2.564129993E-03
  1.240955800E+01  1.921260995E-02
  2.823854000E+00  9.505117973E-02
  7.976700000E-01  3.018678192E-01
  2.580530000E-01  4.874459186E-01
  8.989100000E-02  2.354794293E-01
  3.146200000E-02  1.577775996E-02
   s   7
  8.263637400E+01 -4.600800043E-03
  1.240955800E+01 -3.244470030E-02
  2.823854000E+00 -1.710737016E-01
  7.976700000E-01 -5.048672047E-01
  2.580530000E-01 -9.489200089E-02
  8.989100000E-02  3.708555135E-01
  3.146200000E-02  6.556513461E-01
 
[MO]
Sym=     1a1 
Ene=   -91.9730
Spin= Alpha
Occup=    2.00000
   1         0.99900222
   2        -0.04466546
   3        -0.00001814
   4        -0.00001655
   5         0.00000000
   6         0.00000000
   7         0.00005403
   8         0.00000000
   9         0.00000000
  10        -0.00003041
  11         0.00000000
  12         0.00000000
  13        -0.00000870
  14        -0.00000623
  15         0.00000000
  16         0.00000000
  17         0.00000246
  18         0.00000000
  19        -0.00000700
  20         0.00000000
  21         0.00000000
  22         0.00001317
  23         0.00000000
  24         0.00001404
  25         0.00006542
  26         0.00002800
  27         0.00000000
  28         0.00000799
  29         0.00000146
  30         0.00000000
  31         0.00000860
  32        -0.00000213
  33        -0.00000347
  34         0.00000000
  35        -0.00002424
  36         0.00000345
  37         0.00000000
  38         0.00001404
  39         0.00006542
  40         0.00002800
  41         0.00000000
  42        -0.00000799
  43         0.00000146
  44         0.00000000
  45        -0.00000860
  46        -0.00000213
  47        -0.00000347
  48         0.00000000
  49         0.00002424
  50         0.00000345
  51         0.00000000
  52        -0.00000415
  53        -0.00001332
  54         0.00000081
  55         0.00000000
  56        -0.00000118
  57         0.00000877
  58         0.00000000
  59         0.00000024
  60         0.00000363
  61         0.00000174
  62         0.00000000
  63         0.00000459
  64        -0.00000555
  65         0.00000000
  66        -0.00000415
  67        -0.00001332
  68         0.00000081
  69         0.00000000
  70         0.00000118
  71         0.00000877
  72         0.00000000
  73        -0.00000024
  74         0.00000363
  75         0.00000174
  76         0.00000000
  77        -0.00000459
  78        -0.00000555
  79         0.00000000
  80        -0.00003868
  81        -0.00002173
  82        -0.00003868
  83        -0.00002173
  84        -0.00000770
  85        -0.00000210
  86        -0.00000770
  87        -0.00000210
Sym=     2a1 
Ene=   -11.2570
Spin= Alpha
Occup=    2.00000
   1         0.00004392
   2         0.00030510
   3         0.00069127
   4         0.00006971
   5         0.00000000
   6         0.00000000
   7         0.00002417
   8         0.00000000
   9         0.00000000
  10        -0.00000959
  11         0.00000000
  12         0.00000000
  13        -0.00019359
  14        -0.00031136
  15         0.00000000
  16         0.00000000
  17         0.00012985
  18         0.00000000
  19        -0.00025695
  20         0.00000000
  21         0.00000000
  22         0.00006512
  23         0.00000000
  24         0.70637137
  25        -0.00005260
  26        -0.00181045
  27         0.00000000
  28        -0.00010505
  29        -0.00012035
  30         0.00000000
  31         0.00018423
  32         0.00023557
  33         0.00002940
  34         0.00000000
  35        -0.00012409
  36        -0.00018140
  37         0.00000000
  38         0.70637137
  39        -0.00005260
  40        -0.00181045
  41         0.00000000
  42         0.00010505
  43        -0.00012035
  44         0.00000000
  45        -0.00018423
  46         0.00023557
  47         0.00002940
  48         0.00000000
  49         0.00012409
  50        -0.00018140
  51         0.00000000
  52         0.02649591
  53         0.00058178
  54         0.00020625
  55         0.00000000
  56        -0.00004040
  57        -0.00089036
  58         0.00000000
  59        -0.00025249
  60        -0.00066269
  61        -0.00001774
  62         0.00000000
  63        -0.00014850
  64         0.00003647
  65         0.00000000
  66         0.02649591
  67         0.00058178
  68         0.00020625
  69         0.00000000
  70         0.00004040
  71        -0.00089036
  72         0.00000000
  73         0.00025249
  74        -0.00066269
  75        -0.00001774
  76         0.00000000
  77         0.00014850
  78         0.00003647
  79         0.00000000
  80         0.00057934
  81         0.00015376
  82         0.00057934
  83         0.00015376
  84         0.00068655
  85         0.00043828
  86         0.00068655
  87         0.00043828
Sym=     3a1 
Ene=   -11.2390
Spin= Alpha
Occup=    2.00000
   1        -0.00000429
   2        -0.00002786
   3        -0.00008076
   4        -0.00002765
   5         0.00000000
   6         0.00000000
   7        -0.00002199
   8         0.00000000
   9         0.00000000
  10        -0.00037846
  11         0.00000000
  12         0.00000000
  13        -0.00035498
  14        -0.00010072
  15         0.00000000
  16         0.00000000
  17        -0.00010934
  18         0.00000000
  19        -0.00017289
  20         0.00000000
  21         0.00000000
  22        -0.00011425
  23         0.00000000
  24        -0.02654195
  25         0.00085137
  26         0.00046081
  27         0.00000000
  28        -0.00071002
  29         0.00098529
  30         0.00000000
  31        -0.00065797
  32         0.00079906
  33         0.00000780
  34         0.00000000
  35        -0.00000595
  36         0.00012820
  37         0.00000000
  38        -0.02654195
  39         0.00085137
  40         0.00046081
  41         0.00000000
  42         0.00071002
  43         0.00098529
  44         0.00000000
  45         0.00065797
  46         0.00079906
  47         0.00000780
  48         0.00000000
  49         0.00000595
  50         0.00012820
  51         0.00000000
  52         0.70628695
  53        -0.00012184
  54        -0.00202326
  55         0.00000000
  56        -0.00045566
  57         0.00018629
  58         0.00000000
  59        -0.00022060
  60         0.00018114
  61         0.00011269
  62         0.00000000
  63        -0.00004974
  64        -0.00004851
  65         0.00000000
  66         0.70628695
  67        -0.00012184
  68        -0.00202326
  69         0.00000000
  70         0.00045566
  71         0.00018629
  72         0.00000000
  73         0.00022060
  74         0.00018114
  75         0.00011269
  76         0.00000000
  77         0.00004974
  78        -0.00004851
  79         0.00000000
  80         0.00082822
  81         0.00061186
  82         0.00082822
  83         0.00061186
  84         0.00051421
  85         0.00000366
  86         0.00051421
  87         0.00000366
Sym=     4a1 
Ene=    -8.9784
Spin= Alpha
Occup=    2.00000
   1         0.04472244
   2         0.99930283
   3         0.00137739
   4        -0.00078376
   5         0.00000000
   6         0.00000000
   7         0.00534672
   8         0.00000000
   9         0.00000000
  10         0.00020483
  11         0.00000000
  12         0.00000000
  13        -0.00138506
  14         0.00002720
  15         0.00000000
  16         0.00000000
  17         0.00003352
  18         0.00000000
  19        -0.00031789
  20         0.00000000
  21         0.00000000
  22         0.00084247
  23         0.00000000
  24         0.00032924
  25         0.00221262
  26         0.00074623
  27         0.00000000
  28         0.00125393
  29         0.00008017
  30         0.00000000
  31         0.00127949
  32         0.00013036
  33        -0.00000410
  34         0.00000000
  35        -0.00085774
  36         0.00036145
  37         0.00000000
  38         0.00032924
  39         0.00221262
  40         0.00074623
  41         0.00000000
  42        -0.00125393
  43         0.00008017
  44         0.00000000
  45        -0.00127949
  46         0.00013036
  47        -0.00000410
  48         0.00000000
  49         0.00085774
  50         0.00036145
  51         0.00000000
  52        -0.00017635
  53        -0.00065575
  54        -0.00002969
  55         0.00000000
  56        -0.00079814
  57        -0.00035243
  58         0.00000000
  59        -0.00079358
  60        -0.00047433
  61         0.00006211
  62         0.00000000
  63         0.00017545
  64        -0.00015680
  65         0.00000000
  66        -0.00017635
  67        -0.00065575
  68        -0.00002969
  69         0.00000000
  70         0.00079814
  71        -0.00035243
  72         0.00000000
  73         0.00079358
  74        -0.00047433
  75         0.00006211
  76         0.00000000
  77        -0.00017545
  78        -0.00015680
  79         0.00000000
  80        -0.00187486
  81        -0.00126288
  82        -0.00187486
  83        -0.00126288
  84         0.00058793
  85         0.00048448
  86         0.00058793
  87         0.00048448
Sym=     5a1 
Ene=    -6.6592
Spin= Alpha
Occup=    2.00000
   1        -0.00032299
   2        -0.00549179
   3         0.00018261
   4        -0.00143142
   5         0.00000000
   6         0.00000000
   7         0.99988081
   8         0.00000000
   9         0.00000000
  10        -0.00152911
  11         0.00000000
  12         0.00000000
  13        -0.00126868
  14        -0.00009307
  15         0.00000000
  16         0.00000000
  17        -0.00007855
  18         0.00000000
  19        -0.00115476
  20         0.00000000
  21         0.00000000
  22        -0.00006015
  23         0.00000000
  24         0.00003722
  25         0.00088870
  26         0.00004750
  27         0.00000000
  28        -0.00096382
  29         0.00014841
  30         0.00000000
  31        -0.00022645
  32         0.00062127
  33        -0.00007220
  34         0.00000000
  35        -0.00000072
  36        -0.00005117
  37         0.00000000
  38         0.00003722
  39         0.00088870
  40         0.00004750
  41         0.00000000
  42         0.00096382
  43         0.00014841
  44         0.00000000
  45         0.00022645
  46         0.00062127
  47        -0.00007220
  48         0.00000000
  49         0.00000072
  50        -0.00005117
  51         0.00000000
  52        -0.00010898
  53        -0.00040430
  54        -0.00004193
  55         0.00000000
  56        -0.00013050
  57        -0.00009731
  58         0.00000000
  59        -0.00015665
  60        -0.00019261
  61         0.00012514
  62         0.00000000
  63         0.00008935
  64        -0.00009284
  65         0.00000000
  66        -0.00010898
  67        -0.00040430
  68        -0.00004193
  69         0.00000000
  70         0.00013050
  71        -0.00009731
  72         0.00000000
  73         0.00015665
  74        -0.00019261
  75         0.00012514
  76         0.00000000
  77        -0.00008935
  78        -0.00009284
  79         0.00000000
  80         0.00033536
  81         0.00027087
  82         0.00033536
  83         0.00027087
  84         0.00006574
  85         0.00010547
  86         0.00006574
  87         0.00010547
Sym=     6a1 
Ene=    -1.1678
Spin= Alpha
Occup=    2.00000
   1        -0.00402565
   2        -0.02647500
   3         0.36256437
   4        -0.01335806
   5         0.00000000
   6         0.00000000
   7        -0.01435603
   8         0.00000000
   9         0.00000000
  10         0.08540186
  11         0.00000000
  12         0.00000000
  13        -0.03746444
  14         0.01028600
  15         0.00000000
  16         0.00000000
  17        -0.01238606
  18         0.00000000
  19        -0.00980548
  20         0.00000000
  21         0.00000000
  22         0.00918664
  23         0.00000000
  24        -0.03017301
  25         0.30048532
  26        -0.01764748
  27         0.00000000
  28        -0.07380918
  29         0.02493015
  30         0.00000000
  31         0.02804706
  32        -0.00314203
  33         0.01119971
  34         0.00000000
  35        -0.00021109
  36        -0.01146763
  37         0.00000000
  38        -0.03017301
  39         0.30048532
  40        -0.01764748
  41         0.00000000
  42         0.07380918
  43         0.02493015
  44         0.00000000
  45        -0.02804706
  46        -0.00314203
  47         0.01119971
  48         0.00000000
  49         0.00021109
  50        -0.01146763
  51         0.00000000
  52        -0.03717258
  53         0.26023563
  54        -0.03109970
  55         0.00000000
  56        -0.04257270
  57        -0.06652375
  58         0.00000000
  59         0.00821305
  60         0.02564691
  61         0.00660497
  62         0.00000000
  63        -0.00269938
  64        -0.01035999
  65         0.00000000
  66        -0.03717258
  67         0.26023563
  68        -0.03109970
  69         0.00000000
  70         0.04257270
  71        -0.06652375
  72         0.00000000
  73        -0.00821305
  74         0.02564691
  75         0.00660497
  76         0.00000000
  77         0.00269938
  78        -0.01035999
  79         0.00000000
  80         0.03808390
  81        -0.01430527
  82         0.03808390
  83        -0.01430527
  84         0.04093771
  85        -0.01123892
  86         0.04093771
  87        -0.01123892
Sym=     7a1 
Ene=    -0.9818
Spin= Alpha
Occup=    2.00000
   1         0.00364217
   2         0.02307864
   3        -0.58255932
   4         0.01003555
   5         0.00000000
   6         0.00000000
   7         0.00849498
   8         0.00000000
   9         0.00000000
  10        -0.04383850
  11         0.00000000
  12         0.00000000
  13         0.01982005
  14        -0.00837924
  15         0.00000000
  16         0.00000000
  17         0.01075853
  18         0.00000000
  19        -0.00557605
  20         0.00000000
  21         0.00000000
  22        -0.00982734
  23         0.00000000
  24         0.00175025
  25        -0.08318070
  26        -0.00604080
  27         0.00000000
  28        -0.01305060
  29         0.17340413
  30         0.00000000
  31        -0.04640785
  32        -0.03074747
  33         0.00127811
  34         0.00000000
  35        -0.02419264
  36         0.01149525
  37         0.00000000
  38         0.00175025
  39        -0.08318070
  40        -0.00604080
  41         0.00000000
  42         0.01305060
  43         0.17340413
  44         0.00000000
  45         0.04640785
  46        -0.03074747
  47         0.00127811
  48         0.00000000
  49         0.02419264
  50         0.01149525
  51         0.00000000
  52        -0.03362465
  53         0.33560845
  54        -0.02410563
  55         0.00000000
  56        -0.04364533
  57         0.04969754
  58         0.00000000
  59         0.04312452
  60         0.01837934
  61        -0.00133753
  62         0.00000000
  63         0.00349239
  64        -0.02054405
  65         0.00000000
  66        -0.03362465
  67         0.33560845
  68        -0.02410563
  69         0.00000000
  70         0.04364533
  71         0.04969754
  72         0.00000000
  73        -0.04312452
  74         0.01837934
  75        -0.00133753
  76         0.00000000
  77        -0.00349239
  78        -0.02054405
  79         0.00000000
  80         0.02744069
  81         0.04181682
  82         0.02744069
  83         0.04181682
  84         0.05178821
  85        -0.04799397
  86         0.05178821
  87        -0.04799397
Sym=     8a1 
Ene=    -0.7682
Spin= Alpha
Occup=    2.00000
   1         0.00068264
   2         0.00346373
   3        -0.40372233
   4        -0.00093223
   5         0.00000000
   6         0.00000000
   7         0.00198221
   8         0.00000000
   9         0.00000000
  10         0.06375604
  11         0.00000000
  12         0.00000000
  13        -0.00402064
  14        -0.00302967
  15         0.00000000
  16         0.00000000
  17        -0.00429590
  18         0.00000000
  19         0.00284280
  20         0.00000000
  21         0.00000000
  22         0.00579169
  23         0.00000000
  24        -0.01689519
  25         0.33046135
  26        -0.00714942
  27         0.00000000
  28         0.23739301
  29         0.04742088
  30         0.00000000
  31         0.00955548
  32        -0.03250662
  33        -0.00213452
  34         0.00000000
  35        -0.02024142
  36        -0.01574276
  37         0.00000000
  38        -0.01689519
  39         0.33046135
  40        -0.00714942
  41         0.00000000
  42        -0.23739301
  43         0.04742088
  44         0.00000000
  45        -0.00955548
  46        -0.03250662
  47        -0.00213452
  48         0.00000000
  49         0.02024142
  50        -0.01574276
  51         0.00000000
  52         0.00528795
  53        -0.13457061
  54         0.00154816
  55         0.00000000
  56         0.15307743
  57        -0.18719997
  58         0.00000000
  59        -0.07718774
  60        -0.00302427
  61         0.00870812
  62         0.00000000
  63        -0.01611940
  64         0.01425315
  65         0.00000000
  66         0.00528795
  67        -0.13457061
  68         0.00154816
  69         0.00000000
  70        -0.15307743
  71        -0.18719997
  72         0.00000000
  73         0.07718774
  74        -0.00302427
  75         0.00870812
  76         0.00000000
  77         0.01611940
  78         0.01425315
  79         0.00000000
  80         0.13808891
  81        -0.08800349
  82         0.13808891
  83        -0.08800349
  84         0.00763868
  85         0.05634712
  86         0.00763868
  87         0.05634712
Sym=     9a1 
Ene=    -0.6977
Spin= Alpha