[Molden Format]
[N_Atoms]
 9
[Atoms] (AU)
S1          1     16           0.00000000      0.00000000     -2.17939193
C1          2      6           0.00000000      2.34208385      0.10149087
C1          3      6           0.00000000     -2.34208385      0.10149087
C2          4      6           0.00000000      1.36290122      2.48748753
C2          5      6           0.00000000     -1.36290122      2.48748753
H1          6      1           0.00000000      4.30767660     -0.43504637
H1          7      1           0.00000000     -4.30767660     -0.43504637
H2          8      1           0.00000000      2.50659693      4.17785447
H2          9      1           0.00000000     -2.50659693      4.17785447
[5D]
[Charge] (Mulliken)
 0.225114630725701
 -0.989269946971243
 -0.989269946971243
 -0.633839853781522
 -0.633839853781522
 0.724094763322235
 0.724094763322235
 0.673900406704199
 0.673900406704199
[GTO] (AU)
   1
   s  13
  9.341339600E+04  3.024400009E-04
  1.396165700E+04  2.359690007E-03
  3.169909800E+03  1.219093004E-02
  9.024563400E+02  4.837344015E-02
  2.971584200E+02  1.487256904E-01
  1.087020100E+02  3.264560810E-01
  4.315529900E+01  3.989518812E-01
  1.810794800E+01  1.813913105E-01
  5.570471700E+00  3.603423011E-02
  2.142716400E+00  2.477362007E-02
  4.339943000E-01  2.332840007E-03
  1.570169200E-01 -9.991000030E-04
  5.495592000E-02  3.022100009E-04
   s  13
  9.341339600E+04 -9.859999656E-05
  1.396165700E+04 -7.647999733E-04
  3.169909800E+03 -4.015399860E-03
  9.024563400E+02 -1.598899944E-02
  2.971584200E+02 -5.276519816E-02
  1.087020100E+02 -1.273787956E-01
  4.315529900E+01 -2.238092922E-01
  1.810794800E+01 -9.887609655E-02
  5.570471700E+00  5.295235815E-01
  2.142716400E+00  5.869960795E-01
  4.339943000E-01  4.070764858E-02
  1.570169200E-01 -1.468439949E-02
  5.495592000E-02  4.348479848E-03
   s  13
  9.341339600E+04  2.485000009E-05
  1.396165700E+04  1.933100007E-04
  3.169909800E+03  1.013120004E-03
  9.024563400E+02  4.071930015E-03
  2.971584200E+02  1.352557005E-02
  1.087020100E+02  3.398686013E-02
  4.315529900E+01  6.265824023E-02
  1.810794800E+01  3.168168012E-02
  5.570471700E+00 -2.185153008E-01
  2.142716400E+00 -3.910601015E-01
  4.339943000E-01  6.637445225E-01
  1.570169200E-01  5.170704719E-01
  5.495592000E-02  2.044077008E-02
   s  13
  9.341339600E+04 -2.490000090E-05
  1.396165700E+04 -1.975000072E-04
  3.169909800E+03 -1.003000036E-03
  9.024563400E+02 -4.213600153E-03
  2.971584200E+02 -1.321190048E-02
  1.087020100E+02 -3.626240132E-02
  4.315529900E+01 -5.921470215E-02
  1.810794800E+01 -4.256220155E-02
  5.570471700E+00  2.851211704E-01
  2.142716400E+00  3.718777735E-01
  4.339943000E-01 -1.813683066E+00
  1.570169200E-01  1.258146946E+00
  5.495592000E-02  4.015733846E-01
   p  10
  4.950399900E+02  3.118750001E-03
  1.172211900E+02  2.421577001E-02
  3.750655800E+01  1.059524500E-01
  1.390996800E+01  2.827273401E-01
  5.504501500E+00  4.386969902E-01
  2.243281200E+00  3.147313601E-01
  7.761799200E-01  4.594114002E-02
  2.918704700E-01 -4.957200002E-03
  1.028670000E-01  2.484690001E-03
  3.600345000E-02 -6.772000003E-04
   p  10
  4.950399900E+02 -7.998999997E-04
  1.172211900E+02 -6.197899998E-03
  3.750655800E+01 -2.802529999E-02
  1.390996800E+01 -7.609969997E-02
  5.504501500E+00 -1.276894000E-01
  2.243281200E+00 -7.596879997E-02
  7.761799200E-01  2.850671299E-01
  2.918704700E-01  5.509395898E-01
  1.028670000E-01  3.012694699E-01
  3.600345000E-02  4.803267998E-02
   p  10
  4.950399900E+02  6.901800088E-04
  1.172211900E+02  5.604610071E-03
  3.750655800E+01  2.403047031E-02
  1.390996800E+01  7.093891090E-02
  5.504501500E+00  1.027875213E-01
  2.243281200E+00  1.045433813E-01
  7.761799200E-01 -4.699045060E-01
  2.918704700E-01 -4.719365060E-01
  1.028670000E-01  6.846435887E-01
  3.600345000E-02  4.733040660E-01
   d   4
  1.250000000E+00  1.954657303E-01
  5.040000000E-01  5.479528607E-01
  2.030000000E-01  3.803736505E-01
  7.105000000E-02  3.863999005E-02
   d   4
  1.250000000E+00 -4.016739095E-01
  5.040000000E-01 -6.255475148E-01
  2.030000000E-01  9.182836017E-01
  7.105000000E-02  2.476390059E-01
 
   2
   s  10
  5.240635300E+03  9.370599866E-04
  7.822047900E+02  7.228659896E-03
  1.783508300E+02  3.634369948E-02
  5.081594200E+01  1.306288781E-01
  1.682356200E+01  3.188985054E-01
  6.175776000E+00  4.390794037E-01
  2.418049000E+00  2.144773669E-01
  5.119000000E-01  9.529119863E-03
  1.565900000E-01 -2.422299965E-03
  5.480600000E-02  8.592699877E-04
   s  10
  5.240635300E+03 -2.013999970E-04
  7.822047900E+02 -1.591299976E-03
  1.783508300E+02 -7.857899883E-03
  5.081594200E+01 -3.078559954E-02
  1.682356200E+01 -7.776049884E-02
  6.175776000E+00 -1.654797975E-01
  2.418049000E+00 -9.353159860E-02
  5.119000000E-01  5.910679012E-01
  1.565900000E-01  5.101798424E-01
  5.480600000E-02  3.602094946E-02
   s  10
  5.240635300E+03  1.894800270E-04
  7.822047900E+02  1.599170228E-03
  1.783508300E+02  7.158711020E-03
  5.081594200E+01  3.255102464E-02
  1.682356200E+01  6.671215950E-02
  6.175776000E+00  2.107147000E-01
  2.418049000E+00  1.606341229E-02
  5.119000000E-01 -1.206081172E+00
  1.565900000E-01  6.235919888E-01
  5.480600000E-02  6.755538762E-01
   p   6
  1.884180000E+01  1.363248000E-02
  4.159240000E+00  8.381052999E-02
  1.206710000E+00  2.857919499E-01
  3.855400000E-01  4.864161999E-01
  1.219400000E-01  3.147641699E-01
  4.267900000E-02  9.093436998E-02
   p   6
  1.884180000E+01 -1.270119972E-02
  4.159240000E+00 -6.726639849E-02
  1.206710000E+00 -3.404230924E-01
  3.855400000E-01 -3.747774916E-01
  1.219400000E-01  4.228405505E-01
  4.267900000E-02  6.428391056E-01
   d   3
  1.283800000E+00  3.208788489E-01
  3.440000000E-01  7.233137275E-01
  9.220000000E-02  1.572138094E-01
 
   3
   s  10
  5.240635300E+03  9.370599866E-04
  7.822047900E+02  7.228659896E-03
  1.783508300E+02  3.634369948E-02
  5.081594200E+01  1.306288781E-01
  1.682356200E+01  3.188985054E-01
  6.175776000E+00  4.390794037E-01
  2.418049000E+00  2.144773669E-01
  5.119000000E-01  9.529119863E-03
  1.565900000E-01 -2.422299965E-03
  5.480600000E-02  8.592699877E-04
   s  10
  5.240635300E+03 -2.013999970E-04
  7.822047900E+02 -1.591299976E-03
  1.783508300E+02 -7.857899883E-03
  5.081594200E+01 -3.078559954E-02
  1.682356200E+01 -7.776049884E-02
  6.175776000E+00 -1.654797975E-01
  2.418049000E+00 -9.353159860E-02
  5.119000000E-01  5.910679012E-01
  1.565900000E-01  5.101798424E-01
  5.480600000E-02  3.602094946E-02
   s  10
  5.240635300E+03  1.894800270E-04
  7.822047900E+02  1.599170228E-03
  1.783508300E+02  7.158711020E-03
  5.081594200E+01  3.255102464E-02
  1.682356200E+01  6.671215950E-02
  6.175776000E+00  2.107147000E-01
  2.418049000E+00  1.606341229E-02
  5.119000000E-01 -1.206081172E+00
  1.565900000E-01  6.235919888E-01
  5.480600000E-02  6.755538762E-01
   p   6
  1.884180000E+01  1.363248000E-02
  4.159240000E+00  8.381052999E-02
  1.206710000E+00  2.857919499E-01
  3.855400000E-01  4.864161999E-01
  1.219400000E-01  3.147641699E-01
  4.267900000E-02  9.093436998E-02
   p   6
  1.884180000E+01 -1.270119972E-02
  4.159240000E+00 -6.726639849E-02
  1.206710000E+00 -3.404230924E-01
  3.855400000E-01 -3.747774916E-01
  1.219400000E-01  4.228405505E-01
  4.267900000E-02  6.428391056E-01
   d   3
  1.283800000E+00  3.208788489E-01
  3.440000000E-01  7.233137275E-01
  9.220000000E-02  1.572138094E-01
 
   4
   s  10
  5.240635300E+03  9.370599866E-04
  7.822047900E+02  7.228659896E-03
  1.783508300E+02  3.634369948E-02
  5.081594200E+01  1.306288781E-01
  1.682356200E+01  3.188985054E-01
  6.175776000E+00  4.390794037E-01
  2.418049000E+00  2.144773669E-01
  5.119000000E-01  9.529119863E-03
  1.565900000E-01 -2.422299965E-03
  5.480600000E-02  8.592699877E-04
   s  10
  5.240635300E+03 -2.013999970E-04
  7.822047900E+02 -1.591299976E-03
  1.783508300E+02 -7.857899883E-03
  5.081594200E+01 -3.078559954E-02
  1.682356200E+01 -7.776049884E-02
  6.175776000E+00 -1.654797975E-01
  2.418049000E+00 -9.353159860E-02
  5.119000000E-01  5.910679012E-01
  1.565900000E-01  5.101798424E-01
  5.480600000E-02  3.602094946E-02
   s  10
  5.240635300E+03  1.894800270E-04
  7.822047900E+02  1.599170228E-03
  1.783508300E+02  7.158711020E-03
  5.081594200E+01  3.255102464E-02
  1.682356200E+01  6.671215950E-02
  6.175776000E+00  2.107147000E-01
  2.418049000E+00  1.606341229E-02
  5.119000000E-01 -1.206081172E+00
  1.565900000E-01  6.235919888E-01
  5.480600000E-02  6.755538762E-01
   p   6
  1.884180000E+01  1.363248000E-02
  4.159240000E+00  8.381052999E-02
  1.206710000E+00  2.857919499E-01
  3.855400000E-01  4.864161999E-01
  1.219400000E-01  3.147641699E-01
  4.267900000E-02  9.093436998E-02
   p   6
  1.884180000E+01 -1.270119972E-02
  4.159240000E+00 -6.726639849E-02
  1.206710000E+00 -3.404230924E-01
  3.855400000E-01 -3.747774916E-01
  1.219400000E-01  4.228405505E-01
  4.267900000E-02  6.428391056E-01
   d   3
  1.283800000E+00  3.208788489E-01
  3.440000000E-01  7.233137275E-01
  9.220000000E-02  1.572138094E-01
 
   5
   s  10
  5.240635300E+03  9.370599866E-04
  7.822047900E+02  7.228659896E-03
  1.783508300E+02  3.634369948E-02
  5.081594200E+01  1.306288781E-01
  1.682356200E+01  3.188985054E-01
  6.175776000E+00  4.390794037E-01
  2.418049000E+00  2.144773669E-01
  5.119000000E-01  9.529119863E-03
  1.565900000E-01 -2.422299965E-03
  5.480600000E-02  8.592699877E-04
   s  10
  5.240635300E+03 -2.013999970E-04
  7.822047900E+02 -1.591299976E-03
  1.783508300E+02 -7.857899883E-03
  5.081594200E+01 -3.078559954E-02
  1.682356200E+01 -7.776049884E-02
  6.175776000E+00 -1.654797975E-01
  2.418049000E+00 -9.353159860E-02
  5.119000000E-01  5.910679012E-01
  1.565900000E-01  5.101798424E-01
  5.480600000E-02  3.602094946E-02
   s  10
  5.240635300E+03  1.894800270E-04
  7.822047900E+02  1.599170228E-03
  1.783508300E+02  7.158711020E-03
  5.081594200E+01  3.255102464E-02
  1.682356200E+01  6.671215950E-02
  6.175776000E+00  2.107147000E-01
  2.418049000E+00  1.606341229E-02
  5.119000000E-01 -1.206081172E+00
  1.565900000E-01  6.235919888E-01
  5.480600000E-02  6.755538762E-01
   p   6
  1.884180000E+01  1.363248000E-02
  4.159240000E+00  8.381052999E-02
  1.206710000E+00  2.857919499E-01
  3.855400000E-01  4.864161999E-01
  1.219400000E-01  3.147641699E-01
  4.267900000E-02  9.093436998E-02
   p   6
  1.884180000E+01 -1.270119972E-02
  4.159240000E+00 -6.726639849E-02
  1.206710000E+00 -3.404230924E-01
  3.855400000E-01 -3.747774916E-01
  1.219400000E-01  4.228405505E-01
  4.267900000E-02  6.428391056E-01
   d   3
  1.283800000E+00  3.208788489E-01
  3.440000000E-01  7.233137275E-01
  9.220000000E-02  1.572138094E-01
 
   6
   s   7
  8.263637400E+01  2.564129993E-03
  1.240955800E+01  1.921260995E-02
  2.823854000E+00  9.505117973E-02
  7.976700000E-01  3.018678192E-01
  2.580530000E-01  4.874459186E-01
  8.989100000E-02  2.354794293E-01
  3.146200000E-02  1.577775996E-02
   s   7
  8.263637400E+01 -4.600800043E-03
  1.240955800E+01 -3.244470030E-02
  2.823854000E+00 -1.710737016E-01
  7.976700000E-01 -5.048672047E-01
  2.580530000E-01 -9.489200089E-02
  8.989100000E-02  3.708555135E-01
  3.146200000E-02  6.556513461E-01
 
   7
   s   7
  8.263637400E+01  2.564129993E-03
  1.240955800E+01  1.921260995E-02
  2.823854000E+00  9.505117973E-02
  7.976700000E-01  3.018678192E-01
  2.580530000E-01  4.874459186E-01
  8.989100000E-02  2.354794293E-01
  3.146200000E-02  1.577775996E-02
   s   7
  8.263637400E+01 -4.600800043E-03
  1.240955800E+01 -3.244470030E-02
  2.823854000E+00 -1.710737016E-01
  7.976700000E-01 -5.048672047E-01
  2.580530000E-01 -9.489200089E-02
  8.989100000E-02  3.708555135E-01
  3.146200000E-02  6.556513461E-01
 
   8
   s   7
  8.263637400E+01  2.564129993E-03
  1.240955800E+01  1.921260995E-02
  2.823854000E+00  9.505117973E-02
  7.976700000E-01  3.018678192E-01
  2.580530000E-01  4.874459186E-01
  8.989100000E-02  2.354794293E-01
  3.146200000E-02  1.577775996E-02
   s   7
  8.263637400E+01 -4.600800043E-03
  1.240955800E+01 -3.244470030E-02
  2.823854000E+00 -1.710737016E-01
  7.976700000E-01 -5.048672047E-01
  2.580530000E-01 -9.489200089E-02
  8.989100000E-02  3.708555135E-01
  3.146200000E-02  6.556513461E-01
 
   9
   s   7
  8.263637400E+01  2.564129993E-03
  1.240955800E+01  1.921260995E-02
  2.823854000E+00  9.505117973E-02
  7.976700000E-01  3.018678192E-01
  2.580530000E-01  4.874459186E-01
  8.989100000E-02  2.354794293E-01
  3.146200000E-02  1.577775996E-02
   s   7
  8.263637400E+01 -4.600800043E-03
  1.240955800E+01 -3.244470030E-02
  2.823854000E+00 -1.710737016E-01
  7.976700000E-01 -5.048672047E-01
  2.580530000E-01 -9.489200089E-02
  8.989100000E-02  3.708555135E-01
  3.146200000E-02  6.556513461E-01
 
[MO]
Sym=     1a1 
Ene=   -91.9820
Spin= Alpha
Occup=    2.00000
   1         0.99900212
   2        -0.04466703
   3        -0.00001848
   4        -0.00001772
   5         0.00000000
   6         0.00000000
   7         0.00005372
   8         0.00000000
   9         0.00000000
  10        -0.00003091
  11         0.00000000
  12         0.00000000
  13        -0.00000908
  14        -0.00000650
  15         0.00000000
  16         0.00000000
  17         0.00000278
  18         0.00000000
  19        -0.00000700
  20         0.00000000
  21         0.00000000
  22         0.00001309
  23         0.00000000
  24         0.00001412
  25         0.00006587
  26         0.00002826
  27         0.00000000
  28         0.00000769
  29         0.00000137
  30         0.00000000
  31         0.00000833
  32        -0.00000218
  33        -0.00000345
  34         0.00000000
  35        -0.00002427
  36         0.00000340
  37         0.00000000
  38         0.00001412
  39         0.00006587
  40         0.00002826
  41         0.00000000
  42        -0.00000769
  43         0.00000137
  44         0.00000000
  45        -0.00000833
  46        -0.00000218
  47        -0.00000345
  48         0.00000000
  49         0.00002427
  50         0.00000340
  51         0.00000000
  52        -0.00000418
  53        -0.00001345
  54         0.00000080
  55         0.00000000
  56        -0.00000115
  57         0.00000876
  58         0.00000000
  59         0.00000029
  60         0.00000357
  61         0.00000176
  62         0.00000000
  63         0.00000460
  64        -0.00000556
  65         0.00000000
  66        -0.00000418
  67        -0.00001345
  68         0.00000080
  69         0.00000000
  70         0.00000115
  71         0.00000876
  72         0.00000000
  73        -0.00000029
  74         0.00000357
  75         0.00000176
  76         0.00000000
  77        -0.00000460
  78        -0.00000556
  79         0.00000000
  80        -0.00003862
  81        -0.00002164
  82        -0.00003862
  83        -0.00002164
  84        -0.00000763
  85        -0.00000203
  86        -0.00000763
  87        -0.00000203
Sym=     2a1 
Ene=   -11.2690
Spin= Alpha
Occup=    2.00000
   1         0.00004080
   2         0.00028857
   3         0.00063443
   4         0.00004203
   5         0.00000000
   6         0.00000000
   7         0.00002095
   8         0.00000000
   9         0.00000000
  10        -0.00002773
  11         0.00000000
  12         0.00000000
  13        -0.00019946
  14        -0.00030592
  15         0.00000000
  16         0.00000000
  17         0.00014209
  18         0.00000000
  19        -0.00024794
  20         0.00000000
  21         0.00000000
  22         0.00007379
  23         0.00000000
  24         0.70641841
  25         0.00000150
  26        -0.00168620
  27         0.00000000
  28        -0.00008793
  29        -0.00013899
  30         0.00000000
  31         0.00019607
  32         0.00023808
  33         0.00004247
  34         0.00000000
  35        -0.00012309
  36        -0.00020532
  37         0.00000000
  38         0.70641841
  39         0.00000150
  40        -0.00168620
  41         0.00000000
  42         0.00008793
  43        -0.00013899
  44         0.00000000
  45        -0.00019607
  46         0.00023808
  47         0.00004247
  48         0.00000000
  49         0.00012309
  50        -0.00020532
  51         0.00000000
  52         0.02560780
  53         0.00054935
  54         0.00018597
  55         0.00000000
  56        -0.00004396
  57        -0.00088346
  58         0.00000000
  59        -0.00025549
  60        -0.00064664
  61        -0.00001280
  62         0.00000000
  63        -0.00015579
  64         0.00004314
  65         0.00000000
  66         0.02560780
  67         0.00054935
  68         0.00018597
  69         0.00000000
  70         0.00004396
  71        -0.00088346
  72         0.00000000
  73         0.00025549
  74        -0.00064664
  75        -0.00001280
  76         0.00000000
  77         0.00015579
  78         0.00004314
  79         0.00000000
  80         0.00051413
  81         0.00011630
  82         0.00051413
  83         0.00011630
  84         0.00068086
  85         0.00042867
  86         0.00068086
  87         0.00042867
Sym=     3a1 
Ene=   -11.2500
Spin= Alpha
Occup=    2.00000
   1        -0.00000364
   2        -0.00002435
   3        -0.00007381
   4        -0.00003058
   5         0.00000000
   6         0.00000000
   7        -0.00002046
   8         0.00000000
   9         0.00000000
  10        -0.00037036
  11         0.00000000
  12         0.00000000
  13        -0.00035317
  14        -0.00009837
  15         0.00000000
  16         0.00000000
  17        -0.00010845
  18         0.00000000
  19        -0.00017124
  20         0.00000000
  21         0.00000000
  22        -0.00011228
  23         0.00000000
  24        -0.02566415
  25         0.00082348
  26         0.00043189
  27         0.00000000
  28        -0.00070006
  29         0.00098132
  30         0.00000000
  31        -0.00064255
  32         0.00078165
  33         0.00001564
  34         0.00000000
  35        -0.00001424
  36         0.00013564
  37         0.00000000
  38        -0.02566415
  39         0.00082348
  40         0.00043189
  41         0.00000000
  42         0.00070006
  43         0.00098132
  44         0.00000000
  45         0.00064255
  46         0.00078165
  47         0.00001564
  48         0.00000000
  49         0.00001424
  50         0.00013564
  51         0.00000000
  52         0.70632262
  53        -0.00011937
  54        -0.00192761
  55         0.00000000
  56        -0.00045398
  57         0.00018982
  58         0.00000000
  59        -0.00021073
  60         0.00016669
  61         0.00011664
  62         0.00000000
  63        -0.00004211
  64        -0.00007090
  65         0.00000000
  66         0.70632262
  67        -0.00011937
  68        -0.00192761
  69         0.00000000
  70         0.00045398
  71         0.00018982
  72         0.00000000
  73         0.00021073
  74         0.00016669
  75         0.00011664
  76         0.00000000
  77         0.00004211
  78        -0.00007090
  79         0.00000000
  80         0.00081731
  81         0.00059709
  82         0.00081731
  83         0.00059709
  84         0.00048148
  85        -0.00001219
  86         0.00048148
  87        -0.00001219
Sym=     4a1 
Ene=    -8.9866
Spin= Alpha
Occup=    2.00000
   1         0.04472316
   2         0.99929974
   3         0.00133597
   4        -0.00075311
   5         0.00000000
   6         0.00000000
   7         0.00520137
   8         0.00000000
   9         0.00000000
  10         0.00021135
  11         0.00000000
  12         0.00000000
  13        -0.00135437
  14         0.00002886
  15         0.00000000
  16         0.00000000
  17         0.00003481
  18         0.00000000
  19        -0.00030081
  20         0.00000000
  21         0.00000000
  22         0.00082151
  23         0.00000000
  24         0.00032359
  25         0.00219519
  26         0.00073915
  27         0.00000000
  28         0.00123612
  29         0.00007153
  30         0.00000000
  31         0.00126262
  32         0.00012434
  33        -0.00000487
  34         0.00000000
  35        -0.00084926
  36         0.00036155
  37         0.00000000
  38         0.00032359
  39         0.00219519
  40         0.00073915
  41         0.00000000
  42        -0.00123612
  43         0.00007153
  44         0.00000000
  45        -0.00126262
  46         0.00012434
  47        -0.00000487
  48         0.00000000
  49         0.00084926
  50         0.00036155
  51         0.00000000
  52        -0.00017385
  53        -0.00064780
  54        -0.00003018
  55         0.00000000
  56        -0.00078252
  57        -0.00034242
  58         0.00000000
  59        -0.00077673
  60        -0.00046296
  61         0.00006210
  62         0.00000000
  63         0.00017375
  64        -0.00015594
  65         0.00000000
  66        -0.00017385
  67        -0.00064780
  68        -0.00003018
  69         0.00000000
  70         0.00078252
  71        -0.00034242
  72         0.00000000
  73         0.00077673
  74        -0.00046296
  75         0.00006210
  76         0.00000000
  77        -0.00017375
  78        -0.00015594
  79         0.00000000
  80        -0.00185926
  81        -0.00125359
  82        -0.00185926
  83        -0.00125359
  84         0.00057541
  85         0.00047550
  86         0.00057541
  87         0.00047550
Sym=     5a1 
Ene=    -6.6674
Spin= Alpha
Occup=    2.00000
   1        -0.00031970
   2        -0.00536668
   3         0.00010306
   4        -0.00144977
   5         0.00000000
   6         0.00000000
   7         0.99987894
   8         0.00000000
   9         0.00000000
  10        -0.00157722
  11         0.00000000
  12         0.00000000
  13        -0.00121022
  14        -0.00010734
  15         0.00000000
  16         0.00000000
  17        -0.00006993
  18         0.00000000
  19        -0.00112510
  20         0.00000000
  21         0.00000000
  22        -0.00005700
  23         0.00000000
  24         0.00003928
  25         0.00090800
  26         0.00005874
  27         0.00000000
  28        -0.00100643
  29         0.00011368
  30         0.00000000
  31        -0.00026197
  32         0.00059204
  33        -0.00007362
  34         0.00000000
  35         0.00000781
  36        -0.00005943
  37         0.00000000
  38         0.00003928
  39         0.00090800
  40         0.00005874
  41         0.00000000
  42         0.00100643
  43         0.00011368
  44         0.00000000
  45         0.00026197
  46         0.00059204
  47        -0.00007362
  48         0.00000000
  49        -0.00000781
  50        -0.00005943
  51         0.00000000
  52        -0.00010407
  53        -0.00038139
  54        -0.00003479
  55         0.00000000
  56        -0.00009346
  57        -0.00006830
  58         0.00000000
  59        -0.00011606
  60        -0.00016283
  61         0.00012399
  62         0.00000000
  63         0.00008792
  64        -0.00009132
  65         0.00000000
  66        -0.00010407
  67        -0.00038139
  68        -0.00003479
  69         0.00000000
  70         0.00009346
  71        -0.00006830
  72         0.00000000
  73         0.00011606
  74        -0.00016283
  75         0.00012399
  76         0.00000000
  77        -0.00008792
  78        -0.00009132
  79         0.00000000
  80         0.00035234
  81         0.00028645
  82         0.00035234
  83         0.00028645
  84         0.00003275
  85         0.00008447
  86         0.00003275
  87         0.00008447
Sym=     6a1 
Ene=    -1.1730
Spin= Alpha
Occup=    2.00000
   1        -0.00401837
   2        -0.02642453
   3         0.36320369
   4        -0.01377797
   5         0.00000000
   6         0.00000000
   7        -0.01435442
   8         0.00000000
   9         0.00000000
  10         0.08469384
  11         0.00000000
  12         0.00000000
  13        -0.03772184
  14         0.00994357
  15         0.00000000
  16         0.00000000
  17        -0.01255071
  18         0.00000000
  19        -0.01002310
  20         0.00000000
  21         0.00000000
  22         0.00910711
  23         0.00000000
  24        -0.03010478
  25         0.30060233
  26        -0.01811884
  27         0.00000000
  28        -0.07399790
  29         0.02504309
  30         0.00000000
  31         0.02785021
  32        -0.00261960
  33         0.01126380
  34         0.00000000
  35        -0.00013992
  36        -0.01131416
  37         0.00000000
  38        -0.03010478
  39         0.30060233
  40        -0.01811884
  41         0.00000000
  42         0.07399790
  43         0.02504309
  44         0.00000000
  45        -0.02785021
  46        -0.00261960
  47         0.01126380
  48         0.00000000
  49         0.00013992
  50        -0.01131416
  51         0.00000000
  52        -0.03722632
  53         0.25943821
  54        -0.03179663
  55         0.00000000
  56        -0.04305023
  57        -0.06661337
  58         0.00000000
  59         0.00786968
  60         0.02522758
  61         0.00649957
  62         0.00000000
  63        -0.00284813
  64        -0.01031082
  65         0.00000000
  66        -0.03722632
  67         0.25943821
  68        -0.03179663
  69         0.00000000
  70         0.04305023
  71        -0.06661337
  72         0.00000000
  73        -0.00786968
  74         0.02522758
  75         0.00649957
  76         0.00000000
  77         0.00284813
  78        -0.01031082
  79         0.00000000
  80         0.03854100
  81        -0.01396309
  82         0.03854100
  83        -0.01396309
  84         0.04147311
  85        -0.01082343
  86         0.04147311
  87        -0.01082343
Sym=     7a1 
Ene=    -0.9872
Spin= Alpha
Occup=    2.00000
   1         0.00363002
   2         0.02299448
   3        -0.58249304
   4         0.01074151
   5         0.00000000
   6         0.00000000
   7         0.00846992
   8         0.00000000
   9         0.00000000
  10        -0.04304746
  11         0.00000000
  12         0.00000000
  13         0.01958768
  14        -0.00845533
  15         0.00000000
  16         0.00000000
  17         0.01078400
  18         0.00000000
  19        -0.00569263
  20         0.00000000
  21         0.00000000
  22        -0.00989622
  23         0.00000000
  24         0.00173331
  25        -0.08292439
  26        -0.00578276
  27         0.00000000
  28        -0.01404444
  29         0.17445363
  30         0.00000000
  31        -0.04718359
  32        -0.03042085
  33         0.00119895
  34         0.00000000
  35        -0.02427204
  36         0.01153541
  37         0.00000000
  38         0.00173331
  39        -0.08292439
  40        -0.00578276
  41         0.00000000
  42         0.01404444
  43         0.17445363
  44         0.00000000
  45         0.04718359
  46        -0.03042085
  47         0.00119895
  48         0.00000000
  49         0.02427204
  50         0.01153541
  51         0.00000000
  52        -0.03379606
  53         0.33447615
  54        -0.02527989
  55         0.00000000
  56        -0.04417265
  57         0.05014373
  58         0.00000000
  59         0.04326199
  60         0.01845611
  61        -0.00136407
  62         0.00000000
  63         0.00339812
  64        -0.02064769
  65         0.00000000
  66        -0.03379606
  67         0.33447615
  68        -0.02527989
  69         0.00000000
  70         0.04417265
  71         0.05014373
  72         0.00000000
  73        -0.04326199
  74         0.01845611
  75        -0.00136407
  76         0.00000000
  77        -0.00339812
  78        -0.02064769
  79         0.00000000
  80         0.02843451
  81         0.04245013
  82         0.02843451
  83         0.04245013
  84         0.05124804
  85        -0.04797316
  86         0.05124804
  87        -0.04797316
Sym=     8a1 
Ene=    -0.7730
Spin= Alpha
Occup=    2.00000
   1         0.00070566
   2         0.00358777
   3        -0.40352342
   4         0.00002844
   5         0.00000000
   6         0.00000000
   7         0.00203289
   8         0.00000000
   9         0.00000000
  10         0.06577800
  11         0.00000000
  12         0.00000000
  13        -0.00397394
  14        -0.00316475
  15         0.00000000
  16         0.00000000
  17        -0.00405032
  18         0.00000000
  19         0.00280002
  20         0.00000000
  21         0.00000000
  22         0.00590652
  23         0.00000000
  24        -0.01714663
  25         0.32881169
  26        -0.00881803
  27         0.00000000
  28         0.23776906
  29         0.04699142
  30         0.00000000
  31         0.00956560
  32        -0.03328223
  33        -0.00209746
  34         0.00000000
  35        -0.02039939
  36        -0.01598312
  37         0.00000000
  38        -0.01714663
  39         0.32881169
  40        -0.00881803
  41         0.00000000
  42        -0.23776906
  43         0.04699142
  44         0.00000000
  45        -0.00956560
  46        -0.03328223
  47        -0.00209746
  48         0.00000000
  49         0.02039939
  50        -0.01598312
  51         0.00000000
  52         0.00541227
  53        -0.13374922
  54         0.00241380
  55         0.00000000
  56         0.15345105
  57        -0.18888277
  58         0.00000000
  59        -0.07781840
  60        -0.00314644
  61         0.00870858
  62         0.00000000
  63        -0.01609696
  64         0.01447349
  65         0.00000000
  66         0.00541227
  67        -0.13374922
  68         0.00241380
  69         0.00000000
  70        -0.15345105
  71        -0.18888277
  72         0.00000000
  73         0.07781840
  74        -0.00314644
  75         0.00870858
  76         0.00000000
  77         0.01609696
  78         0.01447349
  79         0.00000000
  80         0.13637659
  81        -0.08825784
  82         0.13637659
  83        -0.08825784
  84         0.00845725
  85         0.05701044
  86         0.00845725
  87         0.05701044
Sym=     9a1 
Ene=    -0.7023
Spin= Alpha