   This run of MOLCAS is using the pymolcas driver

                             OPE
                             OPE          NMOL  CASOP  ENMOLC A   SO
                 OPE        NMOLC        AS  OP EN  MO LC     AS  OP
                OPENM       OL CA        SO  PE NM  OL CA     SOP EN
                OP EN      MO   LC       AS  OP ENMOL  CASO   PENMOL
                OP  EN     MO   LC       AS  OP EN     MO     LC ASO
               OP   E  NMOL  C  AS       OP  EN MO     LC     AS  OP
               OP  E   NMO   LC AS        OPEN  MO     LCASOP EN   M
               O  PEN   MO  LCA  SO
            OPE   NMO   L   CAS    OP
        OPENMOL  CASOP     ENMOL   CASOPE
     OPENMOLCA   SOPENMOLCASOPEN   MOLCASOPE
    OPENMOLCAS   OP           EN   MOL    CAS
    OPENMOLCAS       OP  ENM        O     LCA
    OPENMOLCAS    OPEN  MOLCASO     P  E  NMO
    OPENMOLCAS     OP               E  N  MOL
    OPENMOLCA   SO           PENM   O  L  CAS    OPEN    MO    LCAS
    OPENMOLCA   SOP           ENM   O  L  CAS   OP  EN  MOLC  AS   O
    OPENMOLCA   SOPE           NM      O  LCA   S      OP  EN MO
    OPENMOLC                AS         O  PEN   M      OL  CA  SOPE
    OPENMO        LCASOPE  NMOL        C  ASO   P      ENMOLC     AS
    OPE     NMO      LCA  SO     P     E   NM   OL  CA SO  PE N   MO
          OPENMOLCA            SOPE   NMO        LCAS  O    P  ENMO
     OPENMOLCASOPENMOLCASOPENMOLCASOPENMOLCA
        OPENMOLCASOPENMOLCASOPENMOLCASOPE
            OPENMOLCASOPENMOLCASOPENM
               OPENMOLCASOPENMOLCA        version: v25.02 ?
                   OPENMOLCASO
                       OPE                tag:

 OpenMolcas is free software; you can redistribute it and/or modify it
 under the terms of the GNU Lesser General Public License version 2.1.
 OpenMolcas is distributed in the hope that it will be useful, but it
 is provided "as is" and without any express or implied warranties.
 For more details see the full text of the license in the file
 LICENSE or in <http://www.gnu.org/licenses/>.

                 Copyright (C) The OpenMolcas Authors
           For the author list and the recommended citation,
                   consult the file CONTRIBUTORS.md

           *************************************************
           * pymolcas version py2.29                       *
           *   build c0481229b6f3f65ed2c83878be511d3d      *
           *   (after the EMIL interpreter by V. Veryazov) *
           *************************************************

configuration info
------------------
Host name: bcb11747ffd6 (Linux)
C Compiler ID: IntelLLVM
C flags: -std=gnu99 -qopenmp
Fortran Compiler ID: IntelLLVM
Fortran flags: -standard-semantics -fltconsistency -fpp -i8 -heap-arrays -qopenmp
Definitions: _MOLCAS_;_I8_;_LINUX_;_MOLCAS_MPP_;_SCALAPACK_;_GA_
Parallel: ON (GA=ON)


   ----------------------------------------------------------------------------
  |
  |           Project: benzene
  |    Submitted from: /home/charlie/input_examples/molcas/benzene
  |      Scratch area: /home/charlie/input_examples/molcas/acrolein/tmp/benzene
  |   Save outputs to: /home/charlie/input_examples/molcas/benzene
  |            Molcas: /apps/openmolcas
  |
  | Scratch area is empty (for the master process)
  |
  |    MOLCAS_DRIVER = /apps/openmolcas/pymolcas
  |    MOLCAS_NPROCS = 5
  |    MOLCAS_SOURCE = /apps/openmolcas
  | MOLCAS_STRUCTURE = 0
  |
   ----------------------------------------------------------------------------

++ ---------   Input file   ---------

&SEWARD
Title
Benzene, cc-pCVDZ basis set
NoPack
expert
Basis set
H.....    / inline
          1.   1
    4    2
             13.0100000
              1.9620000
              0.4446000
              0.1220000
      0.0196850              0.0000000
      0.1379770              0.0000000
      0.4781480              0.0000000
      0.5012400              1.0000000
    1    1
              0.7270000
      1.0000000
H1  1.76548255     1.76548255     0.00000000  Angstrom
H2 -2.41169402     0.64621146     0.00000000  Angstrom
H3  0.64621146    -2.41169402     0.00000000  Angstrom
H4 -1.76548255    -1.76548255     0.00000000  Angstrom
H5  2.41169402    -0.64621146     0.00000000  Angstrom
H6 -0.64621146     2.41169402     0.00000000  Angstrom
End of basis
Basis set
C.....    / inline
          6.   2
    10    4
           6665.0000000
           1000.0000000
            228.0000000
             64.7100000
             21.0600000
              7.4950000
              2.7970000
              0.5215000
              0.1596000
              4.5300000
      0.0006920             -0.0001460              0.0000000              0.0000000
      0.0053290             -0.0011540              0.0000000              0.0000000
      0.0270770             -0.0057250              0.0000000              0.0000000
      0.1017180             -0.0233120              0.0000000              0.0000000
      0.2747400             -0.0639550              0.0000000              0.0000000
      0.4485640             -0.1499810              0.0000000              0.0000000
      0.2850740             -0.1272620              0.0000000              0.0000000
      0.0152040              0.5445290              0.0000000              0.0000000
     -0.0031910              0.5804960              1.0000000              0.0000000
      0.0000000              0.0000000              0.0000000              1.0000000
    5    3
              9.4390000
              2.0020000
              0.5456000
              0.1517000
             14.5570000
      0.0381090              0.0000000              0.0000000
      0.2094800              0.0000000              0.0000000
      0.5085570              0.0000000              0.0000000
      0.4688420              1.0000000              0.0000000
      0.0000000              0.0000000              1.0000000
    1    1
              0.5500000
      1.0000000
C1  0.99217154     0.99217154     0.00000000  Angstrom
C2 -1.35533153     0.36315999     0.00000000  Angstrom
C3  0.36315999    -1.35533153     0.00000000  Angstrom
C4 -0.99217154    -0.99217154     0.00000000  Angstrom
C5  1.35533153    -0.36315999     0.00000000  Angstrom
C6 -0.36315999     1.35533153     0.00000000  Angstrom
End of basis
NoCD
End of input

&SCF
Title
Benzene, cc-pCVDZ basis set
THREsholds
1.0d-10 1.0d-6 0.5d-7 0.2d-5
End of input

&MBPT2
Grdt
Frozen
0
End of input

&ALASKA
Show

&SLAPAF
Iterations
1

-- ----------------------------------

--- Start Module: seward at Sat Dec  6 00:12:09 2025 ---
 
()()()()()()()()()()()()()()()()()()()()()()()()()()()()()()()()()()()()()()()()()()()()()()()()()()

                                              &SEWARD

             launched 5 MPI processes, running in PARALLEL mode (work-sharing enabled)
                       available to each process: 2.0 GB of memory, 1 thread
                                        master pid: 3091686
()()()()()()()()()()()()()()()()()()()()()()()()()()()()()()()()()()()()()()()()()()()()()()()()()()
 
 ###############################################################################
 ###############################################################################
 ###                                                                         ###
 ###                                                                         ###
 ###    WARNING:  EXPERT option is ON!                                       ###
 ###                                                                         ###
 ###                                                                         ###
 ###############################################################################
 ###############################################################################
               SEWARD will generate:
                  Multipole Moment integrals up to order  2
                  Kinetic Energy integrals
                  Nuclear Attraction integrals (point charge)
                  One-Electron Hamiltonian integrals
                  Velocity integrals
                  Orbital angular momentum around (-0.0000  0.0000  0.0000 )
                  Velocity quadrupole around (-0.0000  0.0000  0.0000 )
                  Two-Electron Repulsion integrals
 
 Title:
                                  Benzene, cc-pCVDZ basis set                           
 
 
                   Integrals are discarded if absolute value <: 1.00E-14
                   Integral cutoff threshold is set to       <: 1.00E-16
 
++    Symmetry information:
      ---------------------
 
                    Character Table for C1 
 
                             E  
                    a        1  x, y, xy, Rz, z, xz, Ry, yz, Rx, I
--
 
 
++    Basis set information:
      ----------------------
 
 
      Basis set label: H...............................................................................
 
      Electronic valence basis set:
      ------------------
      Associated Effective Charge   1.000000 au
      Associated Actual Charge      1.000000 au
      Nuclear Model: Point charge
 
      Shell  nPrim  nBasis  Cartesian Spherical Contaminant
         s       4       2        X                  
         p       1       1        X                  
 
 
      Basis set label: C...............................................................................
 
      Electronic valence basis set:
      ------------------
      Associated Effective Charge   6.000000 au
      Associated Actual Charge      6.000000 au
      Nuclear Model: Point charge
 
      Shell  nPrim  nBasis  Cartesian Spherical Contaminant
         s      10       4        X                  
         p       5       3        X                  
         d       1       1                 X         
--
 
 
++    Molecular structure info:
      -------------------------
 
                    ************************************************ 
                    **** Cartesian Coordinates / bohr, angstrom **** 
                    ************************************************ 
 
     Center  Label                x              y              z                     x              y              z
        1      H1               3.336278       3.336278       0.000000              1.765483       1.765483       0.000000
        2      H2              -4.557441       1.221163       0.000000             -2.411694       0.646211       0.000000
        3      H3               1.221163      -4.557441       0.000000              0.646211      -2.411694       0.000000
        4      H4              -3.336278      -3.336278       0.000000             -1.765483      -1.765483       0.000000
        5      H5               4.557441      -1.221163       0.000000              2.411694      -0.646211       0.000000
        6      H6              -1.221163       4.557441       0.000000             -0.646211       2.411694       0.000000
        7      C1               1.874932       1.874932       0.000000              0.992172       0.992172       0.000000
        8      C2              -2.561205       0.686273       0.000000             -1.355332       0.363160       0.000000
        9      C3               0.686273      -2.561205       0.000000              0.363160      -1.355332       0.000000
       10      C4              -1.874932      -1.874932       0.000000             -0.992172      -0.992172       0.000000
       11      C5               2.561205      -0.686273       0.000000              1.355332      -0.363160       0.000000
       12      C6              -0.686273       2.561205       0.000000             -0.363160       1.355332       0.000000
 
                    *************************************** 
                    *    InterNuclear Distances / bohr    * 
                    *************************************** 
 
               1 H1            2 H2            3 H3            4 H4            5 H5            6 H6    
    1 H1       0.000000
    2 H2       8.172180        0.000000
    3 H3       8.172180        8.172180        0.000000
    4 H4       9.436421        4.718210        4.718210        0.000000
    5 H5       4.718210        9.436421        4.718210        8.172180        0.000000
    6 H6       4.718210        4.718210        9.436421        8.172180        8.172180        0.000000
    7 C1       2.066655        6.465512        6.465512        7.369765        4.096542        4.096542
    8 C2       6.465512        2.066655        6.465512        4.096542        7.369765        4.096542
    9 C3       6.465512        6.465512        2.066655        4.096542        4.096542        7.369765
   10 C4       7.369765        4.096542        4.096542        2.066655        6.465512        6.465512
   11 C5       4.096542        7.369765        4.096542        6.465512        2.066655        6.465512
   12 C6       4.096542        4.096542        7.369765        6.465512        6.465512        2.066655
 
               7 C1            8 C2            9 C3           10 C4           11 C5           12 C6    
    7 C1       0.000000
    8 C2       4.592628        0.000000
    9 C3       4.592628        4.592628        0.000000
   10 C4       5.303110        2.651555        2.651555        0.000000
   11 C5       2.651555        5.303110        2.651555        4.592628        0.000000
   12 C6       2.651555        2.651555        5.303110        4.592628        4.592628        0.000000
 
                    ******************************************* 
                    *    InterNuclear Distances / angstrom    * 
                    ******************************************* 
 
               1 H1            2 H2            3 H3            4 H4            5 H5            6 H6    
    1 H1       0.000000
    2 H2       4.324531        0.000000
    3 H3       4.324531        4.324531        0.000000
    4 H4       4.993539        2.496769        2.496769        0.000000
    5 H5       2.496769        4.993539        2.496769        4.324531        0.000000
    6 H6       2.496769        2.496769        4.993539        4.324531        4.324531        0.000000
    7 C1       1.093627        3.421402        3.421402        3.899912        2.167797        2.167797
    8 C2       3.421402        1.093627        3.421402        2.167797        3.899912        2.167797
    9 C3       3.421402        3.421402        1.093627        2.167797        2.167797        3.899912
   10 C4       3.899912        2.167797        2.167797        1.093627        3.421402        3.421402
   11 C5       2.167797        3.899912        2.167797        3.421402        1.093627        3.421402
   12 C6       2.167797        2.167797        3.899912        3.421402        3.421402        1.093627
 
               7 C1            8 C2            9 C3           10 C4           11 C5           12 C6    
    7 C1       0.000000
    8 C2       2.430314        0.000000
    9 C3       2.430314        2.430314        0.000000
   10 C4       2.806285        1.403142        1.403142        0.000000
   11 C5       1.403142        2.806285        1.403142        2.430314        0.000000
   12 C6       1.403142        1.403142        2.806285        2.430314        2.430314        0.000000
 
                    ************************************** 
                    *    Valence Bond Angles / degree    * 
                    ************************************** 
                          Atom centers                 Phi
                      1 H1       7 C1      11 C5       120.00
                      1 H1       7 C1      12 C6       120.00
                     11 C5       7 C1      12 C6       120.00
                      2 H2       8 C2      10 C4       120.00
                      2 H2       8 C2      12 C6       120.00
                     10 C4       8 C2      12 C6       120.00
                      3 H3       9 C3      10 C4       120.00
                      3 H3       9 C3      11 C5       120.00
                     10 C4       9 C3      11 C5       120.00
                      4 H4      10 C4       8 C2       120.00
                      4 H4      10 C4       9 C3       120.00
                      8 C2      10 C4       9 C3       120.00
                      5 H5      11 C5       7 C1       120.00
                      5 H5      11 C5       9 C3       120.00
                      7 C1      11 C5       9 C3       120.00
                      6 H6      12 C6       7 C1       120.00
                      6 H6      12 C6       8 C2       120.00
                      7 C1      12 C6       8 C2       120.00
 
           ***************************************************************
           *              Valence Dihedral Angles / degree               *
           ***************************************************************
                    Atom centers                       Phi1     Phi2     Theta 
           1 H1       7 C1      11 C5       5 H5        120.00   120.00     0.00
           1 H1       7 C1      11 C5       9 C3        120.00   120.00  -180.00
           1 H1       7 C1      12 C6       6 H6        120.00   120.00    -0.00
           1 H1       7 C1      12 C6       8 C2        120.00   120.00  -180.00
           2 H2       8 C2      10 C4       4 H4        120.00   120.00    -0.00
           2 H2       8 C2      10 C4       9 C3        120.00   120.00  -180.00
           2 H2       8 C2      12 C6       6 H6        120.00   120.00    -0.00
           2 H2       8 C2      12 C6       7 C1        120.00   120.00  -180.00
           3 H3       9 C3      10 C4       4 H4        120.00   120.00    -0.00
           3 H3       9 C3      10 C4       8 C2        120.00   120.00  -180.00
           3 H3       9 C3      11 C5       5 H5        120.00   120.00    -0.00
           3 H3       9 C3      11 C5       7 C1        120.00   120.00  -180.00
           4 H4      10 C4       8 C2      12 C6        120.00   120.00  -180.00
           9 C3      10 C4       8 C2      12 C6        120.00   120.00    -0.00
           4 H4      10 C4       9 C3      11 C5        120.00   120.00  -180.00
           8 C2      10 C4       9 C3      11 C5        120.00   120.00    -0.00
           5 H5      11 C5       7 C1      12 C6        120.00   120.00  -180.00
           9 C3      11 C5       7 C1      12 C6        120.00   120.00    -0.00
           5 H5      11 C5       9 C3      10 C4        120.00   120.00  -180.00
           7 C1      11 C5       9 C3      10 C4        120.00   120.00    -0.00
           6 H6      12 C6       7 C1      11 C5        120.00   120.00  -180.00
           8 C2      12 C6       7 C1      11 C5        120.00   120.00    -0.00
           6 H6      12 C6       8 C2      10 C4        120.00   120.00  -180.00
           7 C1      12 C6       8 C2      10 C4        120.00   120.00     0.00
--
 
 
            Nuclear Potential Energy            202.19880440 au
 
 
      Basis set specifications :
      Symmetry species         a  
      Basis functions          138
 
 
      Input file to MOLDEN was generated!
 
--- Stop Module: seward at Sat Dec  6 00:12:14 2025 /rc=_RC_ALL_IS_WELL_ ---
*** files: benzene.GssOrb benzene.guessorb.molden xmldump
    saved to directory /home/charlie/input_examples/molcas/benzene
--- Module seward spent 4 seconds ---

*** symbolic link created: INPORB -> benzene.GssOrb
--- Start Module: scf at Sat Dec  6 00:12:16 2025 ---
 
()()()()()()()()()()()()()()()()()()()()()()()()()()()()()()()()()()()()()()()()()()()()()()()()()()

                                                &SCF

             launched 5 MPI processes, running in PARALLEL mode (work-sharing enabled)
                       available to each process: 2.0 GB of memory, 1 thread
                                        master pid: 3091776
()()()()()()()()()()()()()()()()()()()()()()()()()()()()()()()()()()()()()()()()()()()()()()()()()()
 
++    Input section:
      --------------
 
      Header of the integral files:
                            Benzene, cc-pCVDZ basis set
       Integrals generated by Gateway/Seward, Sat Dec  6 00:12:11 2025
 
       Title:
        Benzene, cc-pCVDZ basis set
 
      Cartesian coordinates in angstrom:
      -----------------------------------------------------
      No.  Label        X            Y            Z        
      -----------------------------------------------------
       1   H1         1.76548255   1.76548255   0.00000000
       2   H2        -2.41169402   0.64621146   0.00000000
       3   H3         0.64621146  -2.41169402   0.00000000
       4   H4        -1.76548255  -1.76548255   0.00000000
       5   H5         2.41169402  -0.64621146   0.00000000
       6   H6        -0.64621146   2.41169402   0.00000000
       7   C1         0.99217154   0.99217154   0.00000000
       8   C2        -1.35533153   0.36315999   0.00000000
       9   C3         0.36315999  -1.35533153   0.00000000
      10   C4        -0.99217154  -0.99217154   0.00000000
      11   C5         1.35533153  -0.36315999   0.00000000
      12   C6        -0.36315999   1.35533153   0.00000000
      -----------------------------------------------------
      Nuclear repulsion energy =  202.19880440
--
 
++    Orbital specifications:
      -----------------------
 
      Symmetry species               1
                                     a
      Frozen orbitals                0
      Occupied orbitals             21
      Secondary orbitals           117
      Deleted orbitals               0
      Total number of orbitals     138
      Number of basis functions    138
--
 
      Molecular charge                           0.000
 
++    Optimization specifications:
      ----------------------------
 
      SCF Algorithm: Conventional
      Minimized density differences are used
      Number of density matrices in core                 5
      Maximum number of NDDO SCF iterations            400
      Maximum number of HF SCF iterations              400
      Threshold for SCF energy change             1.00E-10
      Threshold for density matrix                1.00E-06
      Threshold for Fock matrix                   5.00E-08
      Threshold for linear dependence             1.00E-09
      Threshold at which DIIS is turned on        1.50E-01
      Maximum depth in the DIIS procedure                5
      Maximum depth in the BFGS Hessian update          30
      Threshold at which QNR/C2DIIS is turned on  7.50E-02
      Threshold for Norm(delta) (QNR/C2DIIS)      2.00E-06
      All orbitals punched on: SCFORB
--
 
      Input vectors read from INPORB
      Orbital file label: *Guess orbitals
 
 
++ Convergence information
                                   SCF        iterations: Energy and convergence statistics
 
Iter     Tot. SCF        One-elec.       Two-elec.     Energy      Max Dij or  Max Fij      DNorm      TNorm      AccCon     Time
         Energy          Energy          Energy        Change      Delta Norm                                                in Sec.
   1  -230.316586452  -704.603274057   272.087883206   0.00E+00    1.89E-01*   1.66E-01*    9.45E+00   1.96E+02   None         2.
   2  -230.686958058  -712.809569441   279.923806984  -3.70E-01*   1.22E-01*   6.45E-02*    3.44E+00   1.99E+02   EDIIS        0.
   3  -230.717118815  -709.798036933   276.882113720  -3.02E-02*   2.14E-02*   1.74E-02*    1.03E+00   1.98E+02   c2DIIS       0.
   4  -230.722628896  -710.918046105   277.996612810  -5.51E-03*   1.18E-02*   6.28E-03*    1.83E-01   1.98E+02   QNRc2DIIS    0.
   5  -230.722959446  -710.740789609   277.819025765  -3.31E-04*   4.92E-03*   2.04E-03*    1.88E-02   1.98E+02   QNRc2DIIS    0.
   6  -230.723007481  -710.808284686   277.886472807  -4.80E-05*   2.50E-04*   1.41E-04*    3.56E-03   1.98E+02   QNRc2DIIS    0.
   7  -230.723007714  -710.805830579   277.884018466  -2.33E-07*   8.26E-05*   3.21E-05*    7.33E-04   1.98E+02   QNRc2DIIS    0.
   8  -230.723007728  -710.805828808   277.884016682  -1.39E-08*   6.25E-06*   1.64E-06*    1.79E-04   1.98E+02   QNRc2DIIS    0.
   9  -230.723007728  -710.805827899   277.884015772  -9.14E-11    1.40E-06    4.10E-07*    2.67E-05   1.98E+02   QNRc2DIIS    0.
  10  -230.723007728  -710.805836293   277.884024166  -3.35E-12    1.67E-07    5.80E-08*    5.44E-04   1.98E+02   QNRc2DIIS    0.
  11  -230.723007728  -710.805836149   277.884024022  -1.71E-13    3.71E-08    9.53E-09     7.89E-03   1.98E+02   QNRc2DIIS    0.
 
       Convergence after  11 Macro Iterations
--
 
 *****************************************************************************************************************************
 *                                                                                                                           *
 *                                             SCF/KS-DFT Program, Final results                                             *
 *                                                                                                                           *
 *                                                                                                                           *
 *                                                                                                                           *
 *                                                       Final Results                                                       *
 *                                                                                                                           *
 *****************************************************************************************************************************
 
::    Total SCF energy                               -230.7230077279
      One-electron energy                            -710.8058361487
      Two-electron energy                             277.8840240219
      Nuclear repulsion energy                        202.1988043989
      Kinetic energy (interpolated)                   230.1105545806
      Virial theorem                                    1.0026615604
      Total spin, S(S+1)                                0.0000000000
      Total spin, S                                     0.0000000000
      Max non-diagonal density matrix element           0.0000000217
      Max non-diagonal Fock matrix element              0.0000000040
 
 
      All orbitals with orbital energies smaller than  E(LUMO)+0.5 are printed
 
++    Molecular orbitals:
      -------------------
 
      Title: SCF orbitals

      Molecular orbitals for symmetry species 1: a  
 
          Orbital            1         2         3         4         5         6         7         8         9        10    
          Energy          -11.2440  -11.2435  -11.2435  -11.2423  -11.2423  -11.2418   -1.1433   -1.0097   -1.0097   -0.8190
          Occ. No.          2.0000    2.0000    2.0000    2.0000    2.0000    2.0000    2.0000    2.0000    2.0000    2.0000
 
        1 H1     1s        -0.0002   -0.0000   -0.0003   -0.0000    0.0005    0.0006    0.0796    0.0000    0.1771   -0.2631
        2 H1     1s         0.0008    0.0000    0.0007    0.0000   -0.0005   -0.0001   -0.0399   -0.0000   -0.0763    0.0975
        3 H1     2px        0.0001   -0.0000    0.0002    0.0000   -0.0003   -0.0002   -0.0058    0.0022   -0.0108    0.0125
        4 H1     2py        0.0001    0.0000    0.0002   -0.0000   -0.0003   -0.0002   -0.0058   -0.0022   -0.0108    0.0125
        5 H1     2pz        0.0000    0.0000   -0.0000   -0.0000   -0.0000   -0.0000   -0.0000    0.0000    0.0000    0.0000
        6 H2     1s        -0.0002    0.0002    0.0001    0.0005   -0.0003    0.0006    0.0796   -0.1534   -0.0886    0.1315
        7 H2     1s         0.0008   -0.0006   -0.0004   -0.0004    0.0003   -0.0001   -0.0399    0.0661    0.0381   -0.0488
        8 H2     2px       -0.0001    0.0002    0.0001    0.0003   -0.0002    0.0003    0.0080   -0.0132   -0.0067    0.0094
        9 H2     2py        0.0000   -0.0000   -0.0000   -0.0001    0.0000   -0.0001   -0.0021    0.0019    0.0046    0.0009
       10 H2     2pz        0.0000   -0.0000    0.0000    0.0000    0.0000    0.0000   -0.0000    0.0000    0.0000    0.0000
       11 H3     1s        -0.0002   -0.0002    0.0001   -0.0005   -0.0003    0.0006    0.0796    0.1534   -0.0886    0.1315
       12 H3     1s         0.0008    0.0006   -0.0004    0.0004    0.0003   -0.0001   -0.0399   -0.0661    0.0381   -0.0488
       13 H3     2px        0.0000    0.0000   -0.0000    0.0001    0.0000   -0.0001   -0.0021   -0.0019    0.0046    0.0009
       14 H3     2py       -0.0001   -0.0002    0.0001   -0.0003   -0.0002    0.0003    0.0080    0.0132   -0.0067    0.0094
       15 H3     2pz        0.0000   -0.0000   -0.0000   -0.0000   -0.0000    0.0000    0.0000    0.0000    0.0000   -0.0000
       16 H4     1s        -0.0002    0.0000    0.0003   -0.0000    0.0005   -0.0006    0.0796   -0.0000   -0.1771   -0.2631
       17 H4     1s         0.0008   -0.0000   -0.0007    0.0000   -0.0005    0.0001   -0.0399    0.0000    0.0763    0.0975
       18 H4     2px       -0.0001   -0.0000    0.0002   -0.0000    0.0003   -0.0002    0.0058    0.0022   -0.0108   -0.0125
       19 H4     2py       -0.0001    0.0000    0.0002    0.0000    0.0003   -0.0002    0.0058   -0.0022   -0.0108   -0.0125
       20 H4     2pz        0.0000   -0.0000   -0.0000    0.0000   -0.0000    0.0000    0.0000    0.0000   -0.0000   -0.0000
       21 H5     1s        -0.0002   -0.0002   -0.0001    0.0005   -0.0003   -0.0006    0.0796    0.1534    0.0886    0.1315
       22 H5     1s         0.0008    0.0006    0.0004   -0.0004    0.0003    0.0001   -0.0399   -0.0661   -0.0381   -0.0488
       23 H5     2px        0.0001    0.0002    0.0001   -0.0003    0.0002    0.0003   -0.0080   -0.0132   -0.0067   -0.0094
       24 H5     2py       -0.0000   -0.0000   -0.0000    0.0001   -0.0000   -0.0001    0.0021    0.0019    0.0046   -0.0009
       25 H5     2pz        0.0000   -0.0000   -0.0000    0.0000    0.0000   -0.0000    0.0000   -0.0000    0.0000   -0.0000
       26 H6     1s        -0.0002    0.0002   -0.0001   -0.0005   -0.0003   -0.0006    0.0796   -0.1534    0.0886    0.1315
       27 H6     1s         0.0008   -0.0006    0.0004    0.0004    0.0003    0.0001   -0.0399    0.0661   -0.0381   -0.0488
       28 H6     2px       -0.0000    0.0000   -0.0000   -0.0001   -0.0000   -0.0001    0.0021   -0.0019    0.0046   -0.0009
       29 H6     2py        0.0001   -0.0002    0.0001    0.0003    0.0002    0.0003   -0.0080    0.0132   -0.0067   -0.0094
       30 H6     2pz       -0.0000    0.0000    0.0000   -0.0000    0.0000   -0.0000   -0.0000   -0.0000   -0.0000   -0.0000
       31 C1     1s         0.4085    0.0000    0.5780    0.0000   -0.5783   -0.4091   -0.0095   -0.0000   -0.0148    0.0089
       32 C1     1s         0.0028    0.0000    0.0049    0.0000   -0.0054   -0.0042    0.3600    0.0000    0.4940   -0.3997
       33 C1     1s        -0.0022   -0.0000   -0.0056   -0.0000    0.0078    0.0090   -0.1067   -0.0000   -0.1288    0.0534
       34 C1     1s         0.0001    0.0000    0.0001    0.0000   -0.0001   -0.0000   -0.0025   -0.0000   -0.0037    0.0022
       35 C1     2px        0.0001   -0.0001    0.0000    0.0001   -0.0000    0.0000   -0.0678    0.1220   -0.0334   -0.0623
       36 C1     2px       -0.0002    0.0011    0.0003   -0.0005   -0.0011   -0.0020    0.0236   -0.0301    0.0001    0.0366
       37 C1     2px        0.0000    0.0000    0.0000   -0.0000   -0.0000   -0.0000   -0.0001    0.0002   -0.0001   -0.0002
       38 C1     2py        0.0001    0.0001    0.0000   -0.0001   -0.0000    0.0000   -0.0678   -0.1220   -0.0334   -0.0623
       39 C1     2py       -0.0002   -0.0011    0.0003    0.0005   -0.0011   -0.0020    0.0236    0.0301    0.0001    0.0366
       40 C1     2py        0.0000   -0.0000    0.0000    0.0000   -0.0000   -0.0000   -0.0001   -0.0002   -0.0001   -0.0002
       41 C1     2pz        0.0000    0.0000    0.0000   -0.0000   -0.0000   -0.0000    0.0000   -0.0000    0.0000   -0.0000
       42 C1     2pz       -0.0000   -0.0000   -0.0000    0.0000    0.0000    0.0000   -0.0000   -0.0000   -0.0000    0.0000
       43 C1     2pz       -0.0000   -0.0000   -0.0000    0.0000   -0.0000    0.0000    0.0000   -0.0000   -0.0000    0.0000
       44 C1     3d2-       0.0001    0.0000    0.0001    0.0000   -0.0000   -0.0001   -0.0057   -0.0000   -0.0101    0.0028
       45 C1     3d1-       0.0000    0.0000    0.0000   -0.0000    0.0000   -0.0000    0.0000    0.0000    0.0000    0.0000
       46 C1     3d0       -0.0001   -0.0000   -0.0001   -0.0000    0.0005    0.0005   -0.0092   -0.0000   -0.0104    0.0047
       47 C1     3d1+      -0.0000   -0.0000   -0.0000    0.0000   -0.0000   -0.0000    0.0000   -0.0000    0.0000    0.0000
       48 C1     3d2+       0.0000    0.0000   -0.0000   -0.0001   -0.0000   -0.0000   -0.0000   -0.0187    0.0000   -0.0000
       49 C2     1s         0.4085   -0.5005   -0.2890   -0.5008    0.2891   -0.4091   -0.0095    0.0128    0.0074   -0.0044
       50 C2     1s         0.0028   -0.0042   -0.0024   -0.0046    0.0027   -0.0042    0.3600   -0.4278   -0.2470    0.1999
       51 C2     1s        -0.0022    0.0048    0.0028    0.0067   -0.0039    0.0090   -0.1067    0.1115    0.0644   -0.0267
       52 C2     1s         0.0001   -0.0001   -0.0001   -0.0001    0.0000   -0.0000   -0.0025    0.0032    0.0018   -0.0011
       53 C2     2px       -0.0001    0.0000   -0.0000    0.0000   -0.0000   -0.0000    0.0927   -0.0618    0.0159    0.0259
       54 C2     2px        0.0003    0.0001    0.0005    0.0014   -0.0006    0.0027   -0.0322    0.0056   -0.0095    0.0061
       55 C2     2px       -0.0000    0.0000    0.0000    0.0000   -0.0000    0.0000    0.0001   -0.0001    0.0000    0.0001
       56 C2     2py        0.0000    0.0000   -0.0001   -0.0001   -0.0001    0.0000   -0.0248   -0.0728    0.1505    0.2669
       57 C2     2py       -0.0001   -0.0008    0.0013    0.0000    0.0008   -0.0007    0.0086    0.0205   -0.0356   -0.0774
       58 C2     2py        0.0000   -0.0000    0.0000    0.0000    0.0000   -0.0000   -0.0000   -0.0001    0.0003    0.0007
       59 C2     2pz       -0.0000   -0.0000   -0.0000   -0.0000    0.0000   -0.0000    0.0000   -0.0000    0.0000    0.0000
       60 C2     2pz        0.0000    0.0000   -0.0000    0.0000   -0.0000   -0.0000   -0.0000   -0.0000   -0.0000   -0.0000
       61 C2     2pz        0.0000    0.0000    0.0000    0.0000   -0.0000    0.0000   -0.0000    0.0000   -0.0000    0.0000
       62 C2     3d2-      -0.0000    0.0000   -0.0000   -0.0000   -0.0001    0.0000    0.0029   -0.0125    0.0115    0.0120
       63 C2     3d1-      -0.0000   -0.0000    0.0000   -0.0000    0.0000   -0.0000    0.0000    0.0000    0.0000   -0.0000
       64 C2     3d0       -0.0001    0.0001    0.0000    0.0004   -0.0002    0.0005   -0.0092    0.0090    0.0052   -0.0024
       65 C2     3d1+       0.0000    0.0000    0.0000    0.0000   -0.0000   -0.0000   -0.0000   -0.0000    0.0000    0.0000
       66 C2     3d2+       0.0001   -0.0000   -0.0000   -0.0001   -0.0000   -0.0001   -0.0050    0.0029    0.0125    0.0053
       67 C3     1s         0.4085    0.5005   -0.2890    0.5008    0.2892   -0.4091   -0.0095   -0.0128    0.0074   -0.0044
       68 C3     1s         0.0028    0.0042   -0.0024    0.0046    0.0027   -0.0042    0.3600    0.4278   -0.2470    0.1999
       69 C3     1s        -0.0022   -0.0048    0.0028   -0.0067   -0.0039    0.0090   -0.1067   -0.1115    0.0644   -0.0267
       70 C3     1s         0.0001    0.0001   -0.0001    0.0001    0.0000   -0.0000   -0.0025   -0.0032    0.0018   -0.0011
       71 C3     2px        0.0000   -0.0000   -0.0001    0.0001   -0.0001    0.0000   -0.0248    0.0728    0.1505    0.2669
       72 C3     2px       -0.0001    0.0008    0.0013   -0.0000    0.0008   -0.0007    0.0086   -0.0205   -0.0356   -0.0774
       73 C3     2px        0.0000    0.0000    0.0000   -0.0000    0.0000   -0.0000   -0.0000    0.0001    0.0003    0.0007
       74 C3     2py       -0.0001   -0.0000   -0.0000   -0.0000   -0.0000   -0.0000    0.0927    0.0618    0.0159    0.0259
       75 C3     2py        0.0003   -0.0001    0.0005   -0.0014   -0.0006    0.0027   -0.0322   -0.0056   -0.0095    0.0061
       76 C3     2py       -0.0000   -0.0000    0.0000   -0.0000   -0.0000    0.0000    0.0001    0.0001    0.0000    0.0001
       77 C3     2pz       -0.0000   -0.0000    0.0000    0.0000    0.0000    0.0000   -0.0000    0.0000   -0.0000   -0.0000
       78 C3     2pz        0.0000    0.0000   -0.0000    0.0000    0.0000   -0.0000   -0.0000   -0.0000   -0.0000    0.0000
       79 C3     2pz        0.0000   -0.0000    0.0000   -0.0000   -0.0000    0.0000    0.0000   -0.0000   -0.0000   -0.0000
       80 C3     3d2-      -0.0000   -0.0000   -0.0000    0.0000   -0.0001    0.0000    0.0029    0.0125    0.0115    0.0120
       81 C3     3d1-       0.0000    0.0000    0.0000    0.0000   -0.0000    0.0000   -0.0000    0.0000    0.0000    0.0000
       82 C3     3d0       -0.0001   -0.0001    0.0000   -0.0004   -0.0002    0.0005   -0.0092   -0.0090    0.0052   -0.0024
       83 C3     3d1+      -0.0000    0.0000   -0.0000    0.0000   -0.0000    0.0000   -0.0000   -0.0000   -0.0000   -0.0000
       84 C3     3d2+      -0.0001   -0.0000    0.0000   -0.0001    0.0000    0.0001    0.0050    0.0029   -0.0125   -0.0053
       85 C4     1s         0.4085   -0.0000   -0.5780    0.0000   -0.5783    0.4091   -0.0095    0.0000    0.0148    0.0089
       86 C4     1s         0.0028   -0.0000   -0.0049    0.0000   -0.0054    0.0042    0.3600   -0.0000   -0.4940   -0.3997
       87 C4     1s        -0.0022    0.0000    0.0056   -0.0000    0.0078   -0.0090   -0.1067    0.0000    0.1288    0.0534
       88 C4     1s         0.0001   -0.0000   -0.0001    0.0000   -0.0001    0.0000   -0.0025    0.0000    0.0037    0.0022
       89 C4     2px       -0.0001   -0.0001    0.0000   -0.0001    0.0000    0.0000    0.0678    0.1220   -0.0334    0.0623
       90 C4     2px        0.0002    0.0011    0.0003    0.0005    0.0011   -0.0020   -0.0236   -0.0301    0.0001   -0.0366
       91 C4     2px       -0.0000    0.0000    0.0000    0.0000    0.0000   -0.0000    0.0001    0.0002   -0.0001    0.0002
       92 C4     2py       -0.0001    0.0001    0.0000    0.0001    0.0000    0.0000    0.0678   -0.1220   -0.0334    0.0623
       93 C4     2py        0.0002   -0.0011    0.0003   -0.0005    0.0011   -0.0020   -0.0236    0.0301    0.0001   -0.0366
       94 C4     2py       -0.0000   -0.0000    0.0000   -0.0000    0.0000   -0.0000    0.0001   -0.0002   -0.0001    0.0002
       95 C4     2pz       -0.0000    0.0000    0.0000   -0.0000    0.0000   -0.0000    0.0000    0.0000   -0.0000   -0.0000
       96 C4     2pz        0.0000   -0.0000    0.0000   -0.0000   -0.0000    0.0000   -0.0000   -0.0000    0.0000    0.0000
       97 C4     2pz        0.0000   -0.0000   -0.0000    0.0000    0.0000    0.0000   -0.0000   -0.0000   -0.0000    0.0000
       98 C4     3d2-       0.0001   -0.0000   -0.0001    0.0000   -0.0000    0.0001   -0.0057    0.0000    0.0101    0.0028
       99 C4     3d1-       0.0000    0.0000    0.0000   -0.0000    0.0000   -0.0000    0.0000    0.0000    0.0000   -0.0000
      100 C4     3d0       -0.0001    0.0000    0.0001   -0.0000    0.0005   -0.0005   -0.0092    0.0000    0.0104    0.0047
      101 C4     3d1+      -0.0000    0.0000   -0.0000    0.0000   -0.0000   -0.0000   -0.0000   -0.0000   -0.0000   -0.0000
      102 C4     3d2+       0.0000   -0.0000    0.0000   -0.0001   -0.0000   -0.0000    0.0000    0.0187   -0.0000   -0.0000
      103 C5     1s         0.4085    0.5005    0.2890   -0.5008    0.2891    0.4091   -0.0095   -0.0128   -0.0074   -0.0044
      104 C5     1s         0.0028    0.0042    0.0024   -0.0046    0.0027    0.0042    0.3600    0.4278    0.2470    0.1999
      105 C5     1s        -0.0022   -0.0048   -0.0028    0.0067   -0.0039   -0.0090   -0.1067   -0.1115   -0.0644   -0.0267
      106 C5     1s         0.0001    0.0001    0.0001   -0.0001    0.0000    0.0000   -0.0025   -0.0032   -0.0018   -0.0011
      107 C5     2px        0.0001    0.0000   -0.0000   -0.0000    0.0000   -0.0000   -0.0927   -0.0618    0.0159   -0.0259
      108 C5     2px       -0.0003    0.0001    0.0005   -0.0014    0.0006    0.0027    0.0322    0.0056   -0.0095   -0.0061
      109 C5     2px        0.0000    0.0000    0.0000   -0.0000    0.0000    0.0000   -0.0001   -0.0001    0.0000   -0.0001
      110 C5     2py       -0.0000    0.0000   -0.0001    0.0001    0.0001    0.0000    0.0248   -0.0728    0.1505   -0.2669
      111 C5     2py        0.0001   -0.0008    0.0013   -0.0000   -0.0008   -0.0007   -0.0086    0.0205   -0.0356    0.0774
      112 C5     2py       -0.0000   -0.0000    0.0000   -0.0000   -0.0000   -0.0000    0.0000   -0.0001    0.0003   -0.0007
      113 C5     2pz       -0.0000    0.0000   -0.0000   -0.0000   -0.0000   -0.0000   -0.0000   -0.0000   -0.0000    0.0000
      114 C5     2pz       -0.0000    0.0000    0.0000   -0.0000   -0.0000    0.0000    0.0000    0.0000    0.0000   -0.0000
      115 C5     2pz       -0.0000    0.0000    0.0000   -0.0000    0.0000    0.0000    0.0000    0.0000    0.0000    0.0000
      116 C5     3d2-      -0.0000   -0.0000    0.0000   -0.0000   -0.0001   -0.0000    0.0029    0.0125   -0.0115    0.0120
      117 C5     3d1-      -0.0000    0.0000    0.0000    0.0000   -0.0000    0.0000    0.0000    0.0000    0.0000   -0.0000
      118 C5     3d0       -0.0001   -0.0001   -0.0000    0.0004   -0.0002   -0.0005   -0.0092   -0.0090   -0.0052   -0.0024
      119 C5     3d1+       0.0000    0.0000   -0.0000    0.0000    0.0000    0.0000   -0.0000   -0.0000   -0.0000   -0.0000
      120 C5     3d2+       0.0001    0.0000    0.0000   -0.0001   -0.0000    0.0001   -0.0050   -0.0029   -0.0125    0.0053
      121 C6     1s         0.4085   -0.5005    0.2890    0.5008    0.2892    0.4091   -0.0095    0.0128   -0.0074   -0.0044
      122 C6     1s         0.0028   -0.0042    0.0024    0.0046    0.0027    0.0042    0.3600   -0.4278    0.2470    0.1999
      123 C6     1s        -0.0022    0.0048   -0.0028   -0.0067   -0.0039   -0.0090   -0.1067    0.1115   -0.0644   -0.0267
      124 C6     1s         0.0001   -0.0001    0.0001    0.0001    0.0000    0.0000   -0.0025    0.0032   -0.0018   -0.0011
      125 C6     2px       -0.0000   -0.0000   -0.0001   -0.0001    0.0001    0.0000    0.0248    0.0728    0.1505   -0.2669
      126 C6     2px        0.0001    0.0008    0.0013    0.0000   -0.0008   -0.0007   -0.0086   -0.0205   -0.0356    0.0774
      127 C6     2px       -0.0000    0.0000    0.0000    0.0000   -0.0000   -0.0000    0.0000    0.0001    0.0003   -0.0007
      128 C6     2py        0.0001   -0.0000   -0.0000    0.0000    0.0000   -0.0000   -0.0927    0.0618    0.0159   -0.0259
      129 C6     2py       -0.0003   -0.0001    0.0005    0.0014    0.0006    0.0027    0.0322   -0.0056   -0.0095   -0.0061
      130 C6     2py        0.0000   -0.0000    0.0000    0.0000    0.0000    0.0000   -0.0001    0.0001    0.0000   -0.0001
      131 C6     2pz       -0.0000   -0.0000   -0.0000    0.0000    0.0000    0.0000    0.0000    0.0000   -0.0000    0.0000
      132 C6     2pz       -0.0000    0.0000    0.0000   -0.0000   -0.0000   -0.0000   -0.0000    0.0000    0.0000   -0.0000
      133 C6     2pz        0.0000    0.0000    0.0000    0.0000    0.0000    0.0000   -0.0000   -0.0000    0.0000    0.0000
      134 C6     3d2-      -0.0000    0.0000    0.0000    0.0000   -0.0001   -0.0000    0.0029   -0.0125   -0.0115    0.0120
      135 C6     3d1-       0.0000   -0.0000   -0.0000   -0.0000   -0.0000   -0.0000   -0.0000    0.0000    0.0000   -0.0000
      136 C6     3d0       -0.0001    0.0001   -0.0000   -0.0004   -0.0002   -0.0005   -0.0092    0.0090   -0.0052   -0.0024
      137 C6     3d1+      -0.0000   -0.0000   -0.0000    0.0000   -0.0000    0.0000    0.0000   -0.0000    0.0000   -0.0000
      138 C6     3d2+      -0.0001    0.0000   -0.0000   -0.0001    0.0000   -0.0001    0.0050   -0.0029    0.0125   -0.0053
 
          Orbital           11        12        13        14        15        16        17        18        19        20    
          Energy           -0.8190   -0.7011   -0.6398   -0.6128   -0.5823   -0.5823   -0.4963   -0.4903   -0.4903   -0.3328
          Occ. No.          2.0000    2.0000    2.0000    2.0000    2.0000    2.0000    2.0000    2.0000    2.0000    2.0000
 
        1 H1     1s        -0.0000    0.2547   -0.3122   -0.0000   -0.0000    0.3798    0.0000   -0.3712   -0.0000    0.0000
        2 H1     1s         0.0000   -0.0908    0.0817   -0.0000    0.0000   -0.1102   -0.0000    0.0736    0.0000   -0.0000
        3 H1     2px       -0.0027   -0.0094    0.0092   -0.0037    0.0034   -0.0107   -0.0000    0.0077   -0.0056    0.0000
        4 H1     2py        0.0027   -0.0094    0.0092    0.0037   -0.0034   -0.0107   -0.0000    0.0077    0.0056    0.0000
        5 H1     2pz       -0.0000    0.0000    0.0000    0.0000    0.0000   -0.0000    0.0073   -0.0000    0.0000    0.0000
        6 H2     1s        -0.2278    0.2547   -0.3122    0.0000    0.3289   -0.1899    0.0000    0.1856    0.3215    0.0000
        7 H2     1s         0.0845   -0.0908    0.0817   -0.0000   -0.0954    0.0551   -0.0000   -0.0368   -0.0637   -0.0000
        8 H2     2px       -0.0142    0.0128   -0.0125   -0.0014    0.0121   -0.0084    0.0000    0.0035    0.0101   -0.0000
        9 H2     2py        0.0058   -0.0034    0.0034   -0.0051   -0.0057   -0.0021   -0.0000   -0.0080    0.0014    0.0000
       10 H2     2pz        0.0000   -0.0000    0.0000    0.0000   -0.0000    0.0000    0.0073    0.0000   -0.0000   -0.0103
       11 H3     1s         0.2278    0.2547   -0.3122   -0.0000   -0.3289   -0.1899   -0.0000    0.1856   -0.3215   -0.0000
       12 H3     1s        -0.0845   -0.0908    0.0817    0.0000    0.0954    0.0551    0.0000   -0.0368    0.0637    0.0000
       13 H3     2px       -0.0058   -0.0034    0.0034    0.0051    0.0057   -0.0021    0.0000   -0.0080   -0.0014    0.0000
       14 H3     2py        0.0142    0.0128   -0.0125    0.0014   -0.0121   -0.0084   -0.0000    0.0035   -0.0101   -0.0000
       15 H3     2pz       -0.0000   -0.0000    0.0000    0.0000    0.0000    0.0000    0.0073    0.0000    0.0000    0.0103
       16 H4     1s        -0.0000    0.2547    0.3122   -0.0000    0.0000   -0.3798    0.0000   -0.3712   -0.0000   -0.0000
       17 H4     1s         0.0000   -0.0908   -0.0817    0.0000   -0.0000    0.1102   -0.0000    0.0736    0.0000   -0.0000
       18 H4     2px        0.0027    0.0094    0.0092   -0.0037    0.0034   -0.0107    0.0000   -0.0077    0.0056   -0.0000
       19 H4     2py       -0.0027    0.0094    0.0092    0.0037   -0.0034   -0.0107    0.0000   -0.0077   -0.0056    0.0000
       20 H4     2pz        0.0000   -0.0000   -0.0000    0.0000    0.0000   -0.0000    0.0073    0.0000    0.0000   -0.0000
       21 H5     1s        -0.2278    0.2547    0.3122   -0.0000   -0.3289    0.1899    0.0000    0.1856    0.3215    0.0000
       22 H5     1s         0.0845   -0.0908   -0.0817    0.0000    0.0954   -0.0551   -0.0000   -0.0368   -0.0637   -0.0000
       23 H5     2px        0.0142   -0.0128   -0.0125   -0.0014    0.0121   -0.0084   -0.0000   -0.0035   -0.0101    0.0000
       24 H5     2py       -0.0058    0.0034    0.0034   -0.0051   -0.0057   -0.0021   -0.0000    0.0080   -0.0014    0.0000
       25 H5     2pz        0.0000    0.0000   -0.0000   -0.0000   -0.0000   -0.0000    0.0073   -0.0000   -0.0000    0.0103
       26 H6     1s         0.2278    0.2547    0.3122    0.0000    0.3289    0.1899   -0.0000    0.1856   -0.3215    0.0000
       27 H6     1s        -0.0845   -0.0908   -0.0817   -0.0000   -0.0954   -0.0551    0.0000   -0.0368    0.0637   -0.0000
       28 H6     2px        0.0058    0.0034    0.0034    0.0051    0.0057   -0.0021    0.0000    0.0080    0.0014   -0.0000
       29 H6     2py       -0.0142   -0.0128   -0.0125    0.0014   -0.0121   -0.0084    0.0000   -0.0035    0.0101   -0.0000
       30 H6     2pz        0.0000   -0.0000   -0.0000   -0.0000   -0.0000    0.0000    0.0073   -0.0000    0.0000   -0.0103
       31 C1     1s         0.0000   -0.0029    0.0061    0.0000    0.0000   -0.0003    0.0000    0.0019    0.0000    0.0000
       32 C1     1s        -0.0000    0.0208   -0.2208    0.0000    0.0000   -0.0878    0.0000    0.0280    0.0000   -0.0000
       33 C1     1s         0.0000    0.0180   -0.0574   -0.0000    0.0000   -0.0071    0.0000   -0.0169   -0.0000    0.0000
       34 C1     1s         0.0000   -0.0010    0.0017    0.0000    0.0000   -0.0003    0.0000    0.0008    0.0000   -0.0000
       35 C1     2px       -0.2160    0.1996   -0.1340   -0.2914    0.0919    0.3050   -0.0000   -0.2317   -0.2691    0.0000
       36 C1     2px        0.0598   -0.0479    0.0640    0.0675   -0.0407   -0.0592   -0.0000    0.0406    0.0515   -0.0000
       37 C1     2px       -0.0006    0.0006   -0.0003   -0.0007    0.0002    0.0008   -0.0000   -0.0006   -0.0007   -0.0000
       38 C1     2py        0.2160    0.1996   -0.1340    0.2914   -0.0919    0.3050    0.0000   -0.2317    0.2691   -0.0000
       39 C1     2py       -0.0598   -0.0479    0.0640   -0.0675    0.0407   -0.0592    0.0000    0.0406   -0.0515   -0.0000
       40 C1     2py        0.0006    0.0006   -0.0003    0.0007   -0.0002    0.0008   -0.0000   -0.0006    0.0007   -0.0000
       41 C1     2pz       -0.0000   -0.0000    0.0000    0.0000    0.0000    0.0000    0.3215    0.0000   -0.0000    0.0000
       42 C1     2pz        0.0000    0.0000   -0.0000   -0.0000    0.0000   -0.0000   -0.0211    0.0000   -0.0000    0.0000
       43 C1     2pz       -0.0000    0.0000   -0.0000   -0.0000   -0.0000   -0.0000    0.0005    0.0000    0.0000    0.0000
       44 C1     3d2-       0.0000   -0.0047   -0.0236    0.0000   -0.0000    0.0081    0.0000   -0.0329   -0.0000   -0.0000
       45 C1     3d1-      -0.0000   -0.0000   -0.0000    0.0000   -0.0000    0.0000   -0.0111   -0.0000    0.0000   -0.0212
       46 C1     3d0        0.0000    0.0014    0.0001    0.0000   -0.0000    0.0013    0.0000   -0.0003   -0.0000    0.0000
       47 C1     3d1+       0.0000   -0.0000   -0.0000    0.0000   -0.0000    0.0000   -0.0111   -0.0000    0.0000    0.0212
       48 C1     3d2+       0.0151    0.0000    0.0000    0.0105   -0.0205   -0.0000   -0.0000   -0.0000    0.0210    0.0000
       49 C2     1s         0.0077   -0.0029    0.0061    0.0000   -0.0002    0.0001    0.0000   -0.0010   -0.0017    0.0000
       50 C2     1s        -0.3462    0.0208   -0.2208   -0.0000   -0.0761    0.0439    0.0000   -0.0140   -0.0242   -0.0000
       51 C2     1s         0.0463    0.0180   -0.0574   -0.0000   -0.0061    0.0035   -0.0000    0.0085    0.0146    0.0000
       52 C2     1s         0.0019   -0.0010    0.0017   -0.0000   -0.0002    0.0001    0.0000   -0.0004   -0.0007   -0.0000
       53 C2     2px        0.1132   -0.2727    0.1830   -0.1067   -0.3776    0.1792    0.0000   -0.2435   -0.2248    0.0000
       54 C2     2px       -0.0543    0.0654   -0.0874    0.0247    0.0775   -0.0275   -0.0000    0.0441    0.0386    0.0000
       55 C2     2px        0.0003   -0.0008    0.0005   -0.0003   -0.0010    0.0005    0.0000   -0.0006   -0.0006   -0.0000
       56 C2     2py        0.1278    0.0731   -0.0490   -0.3981    0.0339   -0.1645    0.0000   -0.2760    0.2573   -0.0000
       57 C2     2py       -0.0292   -0.0175    0.0234    0.0922    0.0090    0.0590   -0.0000    0.0535   -0.0481    0.0000
       58 C2     2py        0.0003    0.0002   -0.0001   -0.0010    0.0001   -0.0003   -0.0000   -0.0007    0.0007   -0.0000
       59 C2     2pz        0.0000   -0.0000    0.0000   -0.0000   -0.0000   -0.0000    0.3215    0.0000   -0.0000   -0.4144
       60 C2     2pz        0.0000   -0.0000   -0.0000    0.0000    0.0000   -0.0000   -0.0211   -0.0000   -0.0000   -0.0306
       61 C2     2pz       -0.0000   -0.0000   -0.0000   -0.0000    0.0000   -0.0000    0.0005    0.0000    0.0000   -0.0007
       62 C2     3d2-       0.0053    0.0024    0.0118   -0.0091   -0.0124   -0.0133    0.0000   -0.0240   -0.0052    0.0000
       63 C2     3d1-       0.0000    0.0000    0.0000    0.0000   -0.0000    0.0000   -0.0040   -0.0000    0.0000   -0.0116
       64 C2     3d0        0.0041    0.0014    0.0001    0.0000    0.0011   -0.0007    0.0000    0.0001    0.0002   -0.0000
       65 C2     3d1+       0.0000   -0.0000   -0.0000    0.0000   -0.0000   -0.0000    0.0151    0.0000    0.0000   -0.0145
       66 C2     3d2+       0.0059   -0.0041   -0.0205   -0.0052    0.0010   -0.0124    0.0000    0.0052    0.0299   -0.0000
       67 C3     1s        -0.0077   -0.0029    0.0061   -0.0000    0.0002    0.0001    0.0000   -0.0010    0.0017    0.0000
       68 C3     1s         0.3462    0.0208   -0.2208    0.0000    0.0761    0.0439   -0.0000   -0.0140    0.0242    0.0000
       69 C3     1s        -0.0463    0.0180   -0.0574    0.0000    0.0061    0.0035   -0.0000    0.0085   -0.0146    0.0000
       70 C3     1s        -0.0019   -0.0010    0.0017    0.0000    0.0002    0.0001   -0.0000   -0.0004    0.0007   -0.0000
       71 C3     2px       -0.1278    0.0731   -0.0490    0.3981   -0.0339   -0.1645    0.0000   -0.2760   -0.2573    0.0000
       72 C3     2px        0.0292   -0.0175    0.0234   -0.0922   -0.0090    0.0590   -0.0000    0.0535    0.0481   -0.0000
       73 C3     2px       -0.0003    0.0002   -0.0001    0.0010   -0.0001   -0.0003   -0.0000   -0.0007   -0.0007   -0.0000
       74 C3     2py       -0.1132   -0.2727    0.1830    0.1067    0.3776    0.1792    0.0000   -0.2435    0.2248   -0.0000
       75 C3     2py        0.0543    0.0654   -0.0874   -0.0247   -0.0775   -0.0275   -0.0000    0.0441   -0.0386    0.0000
       76 C3     2py       -0.0003   -0.0008    0.0005    0.0003    0.0010    0.0005    0.0000   -0.0006    0.0006    0.0000
       77 C3     2pz        0.0000   -0.0000    0.0000   -0.0000    0.0000    0.0000    0.3215    0.0000   -0.0000    0.4144
       78 C3     2pz        0.0000    0.0000   -0.0000   -0.0000   -0.0000   -0.0000   -0.0211    0.0000   -0.0000    0.0306
       79 C3     2pz       -0.0000    0.0000    0.0000    0.0000   -0.0000   -0.0000    0.0005    0.0000    0.0000    0.0007
       80 C3     3d2-      -0.0053    0.0024    0.0118    0.0091    0.0124   -0.0133    0.0000   -0.0240    0.0052    0.0000
       81 C3     3d1-       0.0000    0.0000    0.0000   -0.0000   -0.0000   -0.0000    0.0151    0.0000   -0.0000    0.0145
       82 C3     3d0       -0.0041    0.0014    0.0001   -0.0000   -0.0011   -0.0007   -0.0000    0.0001   -0.0002   -0.0000
       83 C3     3d1+       0.0000   -0.0000   -0.0000    0.0000    0.0000    0.0000   -0.0040   -0.0000    0.0000    0.0116
       84 C3     3d2+       0.0059    0.0041    0.0205   -0.0052    0.0010    0.0124   -0.0000   -0.0052    0.0299    0.0000
       85 C4     1s         0.0000   -0.0029   -0.0061   -0.0000   -0.0000    0.0003    0.0000    0.0019    0.0000   -0.0000
       86 C4     1s        -0.0000    0.0208    0.2208   -0.0000   -0.0000    0.0878    0.0000    0.0280    0.0000   -0.0000
       87 C4     1s         0.0000    0.0180    0.0574    0.0000   -0.0000    0.0071   -0.0000   -0.0169   -0.0000   -0.0000
       88 C4     1s         0.0000   -0.0010   -0.0017   -0.0000   -0.0000    0.0003   -0.0000    0.0008    0.0000   -0.0000
       89 C4     2px        0.2160   -0.1996   -0.1340   -0.2914    0.0919    0.3050    0.0000    0.2317    0.2691   -0.0000
       90 C4     2px       -0.0598    0.0479    0.0640    0.0675   -0.0407   -0.0592    0.0000   -0.0406   -0.0515   -0.0000
       91 C4     2px        0.0006   -0.0006   -0.0003   -0.0007    0.0002    0.0008    0.0000    0.0006    0.0007    0.0000
       92 C4     2py       -0.2160   -0.1996   -0.1340    0.2914   -0.0919    0.3050   -0.0000    0.2317   -0.2691   -0.0000
       93 C4     2py        0.0598    0.0479    0.0640   -0.0675    0.0407   -0.0592    0.0000   -0.0406    0.0515    0.0000
       94 C4     2py       -0.0006   -0.0006   -0.0003    0.0007   -0.0002    0.0008   -0.0000    0.0006   -0.0007    0.0000
       95 C4     2pz        0.0000   -0.0000    0.0000    0.0000    0.0000    0.0000    0.3215    0.0000   -0.0000   -0.0000
       96 C4     2pz       -0.0000    0.0000    0.0000    0.0000   -0.0000    0.0000   -0.0211    0.0000    0.0000   -0.0000
       97 C4     2pz       -0.0000   -0.0000   -0.0000   -0.0000   -0.0000   -0.0000    0.0005    0.0000    0.0000   -0.0000
       98 C4     3d2-       0.0000   -0.0047    0.0236   -0.0000    0.0000   -0.0081   -0.0000   -0.0329   -0.0000    0.0000
       99 C4     3d1-       0.0000    0.0000    0.0000   -0.0000   -0.0000   -0.0000    0.0111    0.0000   -0.0000   -0.0212
      100 C4     3d0        0.0000    0.0014   -0.0001   -0.0000    0.0000   -0.0013   -0.0000   -0.0003   -0.0000    0.0000
      101 C4     3d1+      -0.0000   -0.0000   -0.0000    0.0000   -0.0000   -0.0000    0.0111   -0.0000   -0.0000    0.0212
      102 C4     3d2+       0.0151   -0.0000   -0.0000   -0.0105    0.0205    0.0000    0.0000   -0.0000    0.0210   -0.0000
      103 C5     1s         0.0077   -0.0029   -0.0061   -0.0000    0.0002   -0.0001   -0.0000   -0.0010   -0.0017   -0.0000
      104 C5     1s        -0.3462    0.0208    0.2208    0.0000    0.0761   -0.0439   -0.0000   -0.0140   -0.0242   -0.0000
      105 C5     1s         0.0463    0.0180    0.0574    0.0000    0.0061   -0.0035    0.0000    0.0085    0.0146    0.0000
      106 C5     1s         0.0019   -0.0010   -0.0017    0.0000    0.0002   -0.0001    0.0000   -0.0004   -0.0007   -0.0000
      107 C5     2px       -0.1132    0.2727    0.1830   -0.1067   -0.3776    0.1792    0.0000    0.2435    0.2248   -0.0000
      108 C5     2px        0.0543   -0.0654   -0.0874    0.0247    0.0775   -0.0275   -0.0000   -0.0441   -0.0386    0.0000
      109 C5     2px       -0.0003    0.0008    0.0005   -0.0003   -0.0010    0.0005    0.0000    0.0006    0.0006    0.0000
      110 C5     2py       -0.1278   -0.0731   -0.0490   -0.3981    0.0339   -0.1645   -0.0000    0.2760   -0.2573   -0.0000
      111 C5     2py        0.0292    0.0175    0.0234    0.0922    0.0090    0.0590   -0.0000   -0.0535    0.0481    0.0000
      112 C5     2py       -0.0003   -0.0002   -0.0001   -0.0010    0.0001   -0.0003   -0.0000    0.0007   -0.0007    0.0000
      113 C5     2pz        0.0000    0.0000    0.0000    0.0000   -0.0000   -0.0000    0.3215    0.0000   -0.0000    0.4144
      114 C5     2pz       -0.0000    0.0000    0.0000    0.0000   -0.0000    0.0000   -0.0211   -0.0000    0.0000    0.0306
      115 C5     2pz        0.0000    0.0000    0.0000    0.0000   -0.0000   -0.0000    0.0005    0.0000    0.0000    0.0007
      116 C5     3d2-       0.0053    0.0024   -0.0118    0.0091    0.0124    0.0133    0.0000   -0.0240   -0.0052   -0.0000
      117 C5     3d1-      -0.0000   -0.0000   -0.0000    0.0000   -0.0000   -0.0000    0.0040   -0.0000    0.0000   -0.0116
      118 C5     3d0        0.0041    0.0014   -0.0001   -0.0000   -0.0011    0.0007   -0.0000    0.0001    0.0002    0.0000
      119 C5     3d1+       0.0000   -0.0000    0.0000   -0.0000   -0.0000    0.0000   -0.0151   -0.0000   -0.0000   -0.0145
      120 C5     3d2+       0.0059   -0.0041    0.0205    0.0052   -0.0010    0.0124    0.0000    0.0052    0.0299    0.0000
      121 C6     1s        -0.0077   -0.0029   -0.0061    0.0000   -0.0002   -0.0001    0.0000   -0.0010    0.0017    0.0000
      122 C6     1s         0.3462    0.0208    0.2208   -0.0000   -0.0761   -0.0439    0.0000   -0.0140    0.0242    0.0000
      123 C6     1s        -0.0463    0.0180    0.0574   -0.0000   -0.0061   -0.0035    0.0000    0.0085   -0.0146   -0.0000
      124 C6     1s        -0.0019   -0.0010   -0.0017   -0.0000   -0.0002   -0.0001   -0.0000   -0.0004    0.0007    0.0000
      125 C6     2px        0.1278   -0.0731   -0.0490    0.3981   -0.0339   -0.1645    0.0000    0.2760    0.2573   -0.0000
      126 C6     2px       -0.0292    0.0175    0.0234   -0.0922   -0.0090    0.0590   -0.0000   -0.0535   -0.0481    0.0000
      127 C6     2px        0.0003   -0.0002   -0.0001    0.0010   -0.0001   -0.0003    0.0000    0.0007    0.0007    0.0000
      128 C6     2py        0.1132    0.2727    0.1830    0.1067    0.3776    0.1792   -0.0000    0.2435   -0.2248   -0.0000
      129 C6     2py       -0.0543   -0.0654   -0.0874   -0.0247   -0.0775   -0.0275   -0.0000   -0.0441    0.0386    0.0000
      130 C6     2py        0.0003    0.0008    0.0005    0.0003    0.0010    0.0005   -0.0000    0.0006   -0.0006    0.0000
      131 C6     2pz       -0.0000    0.0000   -0.0000   -0.0000    0.0000    0.0000    0.3215    0.0000   -0.0000   -0.4144
      132 C6     2pz        0.0000    0.0000    0.0000    0.0000   -0.0000    0.0000   -0.0211   -0.0000    0.0000   -0.0306
      133 C6     2pz        0.0000    0.0000   -0.0000   -0.0000   -0.0000   -0.0000    0.0005    0.0000    0.0000   -0.0007
      134 C6     3d2-      -0.0053    0.0024   -0.0118   -0.0091   -0.0124    0.0133    0.0000   -0.0240    0.0052   -0.0000
      135 C6     3d1-       0.0000    0.0000    0.0000    0.0000    0.0000   -0.0000   -0.0151   -0.0000   -0.0000    0.0145
      136 C6     3d0       -0.0041    0.0014   -0.0001    0.0000    0.0011    0.0007   -0.0000    0.0001   -0.0002    0.0000
      137 C6     3d1+       0.0000    0.0000   -0.0000    0.0000   -0.0000   -0.0000    0.0040   -0.0000    0.0000    0.0116
      138 C6     3d2+       0.0059    0.0041   -0.0205    0.0052   -0.0010   -0.0124   -0.0000   -0.0052    0.0299   -0.0000
 
          Orbital           21        22        23        24        25        26        27        28        29        30    
          Energy           -0.3328    0.1345    0.1345    0.1805    0.2187    0.2187    0.2538    0.2538    0.2695    0.3459
          Occ. No.          2.0000    0.0000    0.0000    0.0000    0.0000    0.0000    0.0000    0.0000    0.0000    0.0000
 
        1 H1     1s        -0.0000    0.0000   -0.0000   -0.0545   -0.0113   -0.0000    0.0000    0.0045   -0.0661    0.0000
        2 H1     1s        -0.0000   -0.0000   -0.0000   -0.7267   -1.3044   -0.0005    0.0000    1.5297   -1.4746   -0.0000
        3 H1     2px        0.0000   -0.0000    0.0000    0.0055    0.0148   -0.0022    0.0050   -0.0154   -0.0020   -0.0000
        4 H1     2py       -0.0000   -0.0000    0.0000    0.0055    0.0148    0.0022   -0.0050   -0.0154   -0.0020   -0.0000
        5 H1     2pz        0.0119   -0.0167   -0.0000    0.0000   -0.0000   -0.0000   -0.0000   -0.0000    0.0000   -0.0198
        6 H2     1s        -0.0000   -0.0000    0.0000   -0.0545    0.0056   -0.0097    0.0039   -0.0023   -0.0661    0.0000
        7 H2     1s        -0.0000   -0.0000   -0.0000   -0.7267    0.6526   -1.1294    1.3247   -0.7648   -1.4746   -0.0000
        8 H2     2px       -0.0000   -0.0000   -0.0000   -0.0075    0.0108   -0.0170    0.0173   -0.0121    0.0027   -0.0000
        9 H2     2py       -0.0000   -0.0000   -0.0000    0.0020   -0.0001    0.0062   -0.0083   -0.0030   -0.0007    0.0000
       10 H2     2pz       -0.0060    0.0084   -0.0145    0.0000    0.0000    0.0000    0.0000   -0.0000   -0.0000   -0.0198
       11 H3     1s         0.0000   -0.0000   -0.0000   -0.0545    0.0056    0.0098   -0.0039   -0.0023   -0.0661    0.0000
       12 H3     1s        -0.0000   -0.0000    0.0000   -0.7267    0.6518    1.1299   -1.3247   -0.7648   -1.4746   -0.0000
       13 H3     2px       -0.0000    0.0000    0.0000    0.0020   -0.0001   -0.0062    0.0083   -0.0030   -0.0007   -0.0000
       14 H3     2py       -0.0000   -0.0000   -0.0000   -0.0075    0.0108    0.0171   -0.0173   -0.0121    0.0027    0.0000
       15 H3     2pz       -0.0060    0.0084    0.0145    0.0000    0.0000    0.0000   -0.0000   -0.0000   -0.0000   -0.0198
       16 H4     1s        -0.0000   -0.0000    0.0000   -0.0545    0.0113    0.0000    0.0000    0.0045    0.0661    0.0000
       17 H4     1s         0.0000    0.0000   -0.0000   -0.7267    1.3044    0.0005    0.0000    1.5297    1.4746    0.0000
       18 H4     2px       -0.0000   -0.0000   -0.0000   -0.0055    0.0148   -0.0022   -0.0050    0.0154   -0.0020    0.0000
       19 H4     2py       -0.0000    0.0000   -0.0000   -0.0055    0.0148    0.0022    0.0050    0.0154   -0.0020   -0.0000
       20 H4     2pz       -0.0119   -0.0167   -0.0000    0.0000   -0.0000   -0.0000   -0.0000   -0.0000   -0.0000    0.0198
       21 H5     1s        -0.0000    0.0000   -0.0000   -0.0545   -0.0056    0.0097    0.0039   -0.0023    0.0661   -0.0000
       22 H5     1s         0.0000   -0.0000    0.0000   -0.7267   -0.6526    1.1294    1.3247   -0.7648    1.4746   -0.0000
       23 H5     2px        0.0000   -0.0000    0.0000    0.0075    0.0108   -0.0170   -0.0173    0.0121    0.0027    0.0000
       24 H5     2py       -0.0000    0.0000    0.0000   -0.0020   -0.0001    0.0062    0.0083    0.0030   -0.0007   -0.0000
       25 H5     2pz        0.0060    0.0084   -0.0145    0.0000   -0.0000    0.0000   -0.0000   -0.0000   -0.0000    0.0198
       26 H6     1s        -0.0000    0.0000   -0.0000   -0.0545   -0.0056   -0.0098   -0.0039   -0.0023    0.0661   -0.0000
       27 H6     1s        -0.0000    0.0000   -0.0000   -0.7267   -0.6518   -1.1299   -1.3247   -0.7648    1.4746    0.0000
       28 H6     2px       -0.0000    0.0000   -0.0000   -0.0020   -0.0001   -0.0062   -0.0083    0.0030   -0.0007    0.0000
       29 H6     2py        0.0000    0.0000    0.0000    0.0075    0.0108    0.0171    0.0173    0.0121    0.0027    0.0000
       30 H6     2pz        0.0060    0.0084    0.0145    0.0000   -0.0000   -0.0000   -0.0000   -0.0000   -0.0000    0.0198
       31 C1     1s        -0.0000    0.0000    0.0000   -0.0186   -0.0239   -0.0000    0.0000    0.0215    0.0280   -0.0000
       32 C1     1s         0.0000   -0.0000   -0.0000    0.0519    0.0187    0.0000   -0.0000   -0.1349    0.2855   -0.0000
       33 C1     1s        -0.0000   -0.0000    0.0000    0.5490    1.0341    0.0004   -0.0000   -0.9866   -1.4452    0.0000
       34 C1     1s         0.0000   -0.0000   -0.0000   -0.0062   -0.0083   -0.0000    0.0000    0.0085    0.0089   -0.0000
       35 C1     2px        0.0000   -0.0000    0.0000    0.1010    0.1707   -0.0052    0.0426   -0.0977    0.0600   -0.0000
       36 C1     2px        0.0000    0.0000    0.0000    0.1512    0.3881    0.1504    0.1493   -0.5953    1.2723    0.0000
       37 C1     2px       -0.0000    0.0000   -0.0000    0.0002    0.0006    0.0001    0.0005   -0.0006    0.0004    0.0000
       38 C1     2py        0.0000   -0.0000    0.0000    0.1010    0.1707    0.0053   -0.0426   -0.0977    0.0600   -0.0000
       39 C1     2py        0.0000   -0.0000   -0.0000    0.1512    0.3882   -0.1501   -0.1493   -0.5953    1.2723   -0.0000
       40 C1     2py       -0.0000    0.0000   -0.0000    0.0002    0.0006   -0.0001   -0.0005   -0.0006    0.0004    0.0000
       41 C1     2pz        0.4785   -0.4682   -0.0000   -0.0000   -0.0000   -0.0000   -0.0000   -0.0000    0.0000   -0.3518
       42 C1     2pz        0.0353   -0.3585   -0.0000   -0.0000   -0.0000   -0.0000   -0.0000    0.0000    0.0000   -0.5662
       43 C1     2pz        0.0009   -0.0013   -0.0000    0.0000   -0.0000   -0.0000   -0.0000    0.0000   -0.0000   -0.0010
       44 C1     3d2-       0.0000   -0.0000    0.0000   -0.0079    0.0087    0.0000   -0.0000   -0.0165    0.0123   -0.0000
       45 C1     3d1-      -0.0090   -0.0079    0.0276    0.0000   -0.0000    0.0000    0.0000    0.0000   -0.0000   -0.0116
       46 C1     3d0        0.0000    0.0000    0.0000   -0.0052   -0.0098   -0.0000    0.0000    0.0073    0.0324    0.0000
       47 C1     3d1+      -0.0090   -0.0079   -0.0276    0.0000   -0.0000    0.0000   -0.0000   -0.0000   -0.0000   -0.0116
       48 C1     3d2+      -0.0000    0.0000   -0.0000   -0.0000    0.0000   -0.0039    0.0100   -0.0000    0.0000    0.0000
       49 C2     1s        -0.0000    0.0000    0.0000   -0.0186    0.0119   -0.0207    0.0186   -0.0107    0.0280   -0.0000
       50 C2     1s         0.0000    0.0000    0.0000    0.0519   -0.0093    0.0162   -0.1168    0.0674    0.2855    0.0000
       51 C2     1s        -0.0000    0.0000    0.0000    0.5490   -0.5174    0.8954   -0.8544    0.4933   -1.4452   -0.0000
       52 C2     1s         0.0000    0.0000   -0.0000   -0.0062    0.0041   -0.0072    0.0073   -0.0042    0.0089    0.0000
       53 C2     2px        0.0000    0.0000    0.0000   -0.1380    0.1183   -0.2009    0.1078   -0.0802   -0.0820   -0.0000
       54 C2     2px       -0.0000   -0.0000    0.0000   -0.2066    0.2177   -0.4866    0.6770   -0.4540   -1.7381   -0.0000
       55 C2     2px        0.0000   -0.0000    0.0000   -0.0002    0.0004   -0.0007    0.0006   -0.0006   -0.0005   -0.0000
       56 C2     2py       -0.0000   -0.0000   -0.0000    0.0370   -0.0251    0.0577   -0.0601   -0.0325    0.0220    0.0000
       57 C2     2py        0.0000   -0.0000    0.0000    0.0554   -0.2488    0.0203   -0.2907   -0.0677    0.4657    0.0000
       58 C2     2py        0.0000    0.0000   -0.0000    0.0001   -0.0002    0.0001   -0.0005   -0.0005    0.0001    0.0000
       59 C2     2pz       -0.2393    0.2341   -0.4054    0.0000   -0.0000    0.0000   -0.0000   -0.0000    0.0000   -0.3518
       60 C2     2pz       -0.0177    0.1793   -0.3105   -0.0000    0.0000    0.0000   -0.0000    0.0000   -0.0000   -0.5662
       61 C2     2pz       -0.0004    0.0006   -0.0011   -0.0000   -0.0000   -0.0000   -0.0000    0.0000    0.0000   -0.0010
       62 C2     3d2-       0.0000    0.0000    0.0000    0.0039   -0.0008   -0.0054    0.0114    0.0033   -0.0062    0.0000
       63 C2     3d1-       0.0267    0.0342    0.0164   -0.0000   -0.0000   -0.0000    0.0000   -0.0000    0.0000   -0.0043
       64 C2     3d0        0.0000   -0.0000   -0.0000   -0.0052    0.0049   -0.0085    0.0063   -0.0036    0.0324   -0.0000
       65 C2     3d1+       0.0006    0.0033    0.0144    0.0000    0.0000    0.0000   -0.0000   -0.0000    0.0000    0.0159
       66 C2     3d2+       0.0000    0.0000   -0.0000   -0.0068   -0.0054    0.0055   -0.0099    0.0114    0.0107   -0.0000
       67 C3     1s        -0.0000    0.0000    0.0000   -0.0186    0.0119    0.0207   -0.0186   -0.0107    0.0280    0.0000
       68 C3     1s        -0.0000    0.0000    0.0000    0.0519   -0.0093   -0.0162    0.1168    0.0674    0.2855   -0.0000
       69 C3     1s        -0.0000   -0.0000   -0.0000    0.5490   -0.5167   -0.8958    0.8544    0.4933   -1.4452   -0.0000
       70 C3     1s         0.0000   -0.0000    0.0000   -0.0062    0.0041    0.0072   -0.0073   -0.0042    0.0089   -0.0000
       71 C3     2px       -0.0000    0.0000    0.0000    0.0370   -0.0250   -0.0577    0.0601   -0.0325    0.0220    0.0000
       72 C3     2px        0.0000    0.0000   -0.0000    0.0554   -0.2487   -0.0205    0.2907   -0.0677    0.4657    0.0000
       73 C3     2px        0.0000    0.0000    0.0000    0.0001   -0.0002   -0.0001    0.0005   -0.0005    0.0001    0.0000
       74 C3     2py        0.0000   -0.0000   -0.0000   -0.1380    0.1182    0.2010   -0.1078   -0.0802   -0.0820    0.0000
       75 C3     2py       -0.0000   -0.0000   -0.0000   -0.2066    0.2173    0.4867   -0.6770   -0.4539   -1.7381    0.0000
       76 C3     2py        0.0000   -0.0000   -0.0000   -0.0002    0.0004    0.0007   -0.0006   -0.0006   -0.0005   -0.0000
       77 C3     2pz       -0.2393    0.2341    0.4054   -0.0000    0.0000    0.0000   -0.0000   -0.0000    0.0000   -0.3518
       78 C3     2pz       -0.0177    0.1793    0.3105   -0.0000    0.0000   -0.0000    0.0000    0.0000    0.0000   -0.5662
       79 C3     2pz       -0.0004    0.0006    0.0011    0.0000   -0.0000   -0.0000   -0.0000   -0.0000   -0.0000   -0.0010
       80 C3     3d2-      -0.0000    0.0000   -0.0000    0.0039   -0.0008    0.0054   -0.0114    0.0033   -0.0062    0.0000
       81 C3     3d1-       0.0006    0.0033   -0.0144    0.0000   -0.0000   -0.0000    0.0000    0.0000    0.0000    0.0159
       82 C3     3d0        0.0000    0.0000   -0.0000   -0.0052    0.0049    0.0085   -0.0063   -0.0036    0.0324    0.0000
       83 C3     3d1+       0.0267    0.0342   -0.0164    0.0000    0.0000   -0.0000    0.0000    0.0000    0.0000   -0.0043
       84 C3     3d2+      -0.0000   -0.0000   -0.0000    0.0068    0.0054    0.0055   -0.0099   -0.0114   -0.0107   -0.0000
       85 C4     1s        -0.0000   -0.0000    0.0000   -0.0186    0.0239    0.0000    0.0000    0.0215   -0.0280    0.0000
       86 C4     1s        -0.0000   -0.0000   -0.0000    0.0519   -0.0187   -0.0000   -0.0000   -0.1349   -0.2855    0.0000
       87 C4     1s         0.0000    0.0000   -0.0000    0.5490   -1.0341   -0.0004   -0.0000   -0.9866    1.4452    0.0000
       88 C4     1s        -0.0000    0.0000   -0.0000   -0.0062    0.0083    0.0000    0.0000    0.0085   -0.0089   -0.0000
       89 C4     2px        0.0000   -0.0000   -0.0000   -0.1010    0.1707   -0.0052   -0.0426    0.0977    0.0600    0.0000
       90 C4     2px        0.0000    0.0000   -0.0000   -0.1512    0.3881    0.1504   -0.1493    0.5953    1.2723    0.0000
       91 C4     2px       -0.0000   -0.0000   -0.0000   -0.0002    0.0006    0.0001   -0.0005    0.0006    0.0004    0.0000
       92 C4     2py       -0.0000    0.0000   -0.0000   -0.1010    0.1707    0.0053    0.0426    0.0977    0.0600   -0.0000
       93 C4     2py        0.0000   -0.0000    0.0000   -0.1512    0.3882   -0.1501    0.1493    0.5953    1.2723    0.0000
       94 C4     2py       -0.0000   -0.0000    0.0000   -0.0002    0.0006   -0.0001    0.0005    0.0006    0.0004    0.0000
       95 C4     2pz       -0.4785   -0.4682   -0.0000   -0.0000    0.0000    0.0000   -0.0000    0.0000    0.0000    0.3518
       96 C4     2pz       -0.0353   -0.3585   -0.0000    0.0000   -0.0000   -0.0000    0.0000    0.0000    0.0000    0.5662
       97 C4     2pz       -0.0009   -0.0013   -0.0000    0.0000   -0.0000   -0.0000    0.0000   -0.0000   -0.0000    0.0010
       98 C4     3d2-       0.0000    0.0000    0.0000   -0.0079   -0.0087   -0.0000   -0.0000   -0.0165   -0.0123   -0.0000
       99 C4     3d1-      -0.0090    0.0079   -0.0276    0.0000   -0.0000    0.0000    0.0000   -0.0000    0.0000   -0.0116
      100 C4     3d0       -0.0000    0.0000    0.0000   -0.0052    0.0098    0.0000    0.0000    0.0073   -0.0324   -0.0000
      101 C4     3d1+      -0.0090    0.0079    0.0276    0.0000   -0.0000    0.0000    0.0000    0.0000    0.0000   -0.0116
      102 C4     3d2+      -0.0000    0.0000   -0.0000    0.0000   -0.0000    0.0039    0.0100   -0.0000   -0.0000   -0.0000
      103 C5     1s        -0.0000    0.0000    0.0000   -0.0186   -0.0119    0.0207    0.0186   -0.0107   -0.0280   -0.0000
      104 C5     1s        -0.0000   -0.0000    0.0000    0.0519    0.0093   -0.0162   -0.1168    0.0674   -0.2855   -0.0000
      105 C5     1s         0.0000    0.0000    0.0000    0.5490    0.5174   -0.8954   -0.8544    0.4933    1.4452   -0.0000
      106 C5     1s        -0.0000    0.0000   -0.0000   -0.0062   -0.0041    0.0072    0.0073   -0.0042   -0.0089    0.0000
      107 C5     2px       -0.0000   -0.0000    0.0000    0.1380    0.1183   -0.2009   -0.1078    0.0802   -0.0820    0.0000
      108 C5     2px       -0.0000    0.0000   -0.0000    0.2066    0.2177   -0.4866   -0.6770    0.4540   -1.7381    0.0000
      109 C5     2px       -0.0000    0.0000   -0.0000    0.0002    0.0004   -0.0007   -0.0006    0.0006   -0.0005   -0.0000
      110 C5     2py       -0.0000   -0.0000    0.0000   -0.0370   -0.0251    0.0577    0.0601    0.0325    0.0220   -0.0000
      111 C5     2py        0.0000   -0.0000   -0.0000   -0.0554   -0.2488    0.0203    0.2907    0.0677    0.4657   -0.0000
      112 C5     2py       -0.0000    0.0000    0.0000   -0.0001   -0.0002    0.0001    0.0005    0.0005    0.0001    0.0000
      113 C5     2pz        0.2393    0.2341   -0.4054    0.0000   -0.0000    0.0000    0.0000   -0.0000   -0.0000    0.3518
      114 C5     2pz        0.0177    0.1793   -0.3105    0.0000    0.0000    0.0000    0.0000    0.0000   -0.0000    0.5662
      115 C5     2pz        0.0004    0.0006   -0.0011   -0.0000    0.0000   -0.0000    0.0000   -0.0000    0.0000    0.0010
      116 C5     3d2-       0.0000   -0.0000    0.0000    0.0039    0.0008    0.0054    0.0114    0.0033    0.0062   -0.0000
      117 C5     3d1-       0.0267   -0.0342   -0.0164    0.0000   -0.0000   -0.0000    0.0000    0.0000    0.0000   -0.0043
      118 C5     3d0       -0.0000    0.0000   -0.0000   -0.0052   -0.0049    0.0085    0.0063   -0.0036   -0.0324    0.0000
      119 C5     3d1+       0.0006   -0.0033   -0.0144   -0.0000    0.0000    0.0000   -0.0000    0.0000   -0.0000    0.0159
      120 C5     3d2+       0.0000    0.0000    0.0000   -0.0068    0.0054   -0.0055   -0.0099    0.0114   -0.0107    0.0000
      121 C6     1s         0.0000    0.0000   -0.0000   -0.0186   -0.0119   -0.0207   -0.0186   -0.0107   -0.0280    0.0000
      122 C6     1s         0.0000   -0.0000    0.0000    0.0519    0.0093    0.0162    0.1168    0.0674   -0.2855    0.0000
      123 C6     1s         0.0000    0.0000    0.0000    0.5490    0.5167    0.8958    0.8544    0.4933    1.4452   -0.0000
      124 C6     1s        -0.0000   -0.0000   -0.0000   -0.0062   -0.0041   -0.0072   -0.0073   -0.0042   -0.0089   -0.0000
      125 C6     2px        0.0000    0.0000    0.0000   -0.0370   -0.0250   -0.0577   -0.0601    0.0325    0.0220   -0.0000
      126 C6     2px       -0.0000    0.0000    0.0000   -0.0554   -0.2487   -0.0205   -0.2907    0.0677    0.4657   -0.0000
      127 C6     2px       -0.0000   -0.0000   -0.0000   -0.0001   -0.0002   -0.0001   -0.0005    0.0005    0.0001    0.0000
      128 C6     2py        0.0000    0.0000    0.0000    0.1380    0.1182    0.2010    0.1078    0.0802   -0.0820    0.0000
      129 C6     2py       -0.0000   -0.0000    0.0000    0.2066    0.2173    0.4867    0.6770    0.4539   -1.7381   -0.0000
      130 C6     2py       -0.0000    0.0000   -0.0000    0.0002    0.0004    0.0007    0.0006    0.0006   -0.0005   -0.0000
      131 C6     2pz        0.2393    0.2341    0.4054   -0.0000   -0.0000   -0.0000    0.0000   -0.0000   -0.0000    0.3518
      132 C6     2pz        0.0177    0.1793    0.3105   -0.0000   -0.0000   -0.0000   -0.0000   -0.0000   -0.0000    0.5662
      133 C6     2pz        0.0004    0.0006    0.0011    0.0000    0.0000   -0.0000    0.0000    0.0000   -0.0000    0.0010
      134 C6     3d2-      -0.0000   -0.0000   -0.0000    0.0039    0.0008   -0.0054   -0.0114    0.0033    0.0062   -0.0000
      135 C6     3d1-       0.0006   -0.0033    0.0144   -0.0000   -0.0000   -0.0000   -0.0000   -0.0000    0.0000    0.0159
      136 C6     3d0       -0.0000    0.0000   -0.0000   -0.0052   -0.0049   -0.0085   -0.0063   -0.0036   -0.0324   -0.0000
      137 C6     3d1+       0.0267   -0.0342    0.0164    0.0000    0.0000   -0.0000    0.0000   -0.0000   -0.0000   -0.0043
      138 C6     3d2+       0.0000   -0.0000    0.0000    0.0068   -0.0054   -0.0055   -0.0099   -0.0114    0.0107   -0.0000
 
          Orbital           31        32        33        34        35        36    
          Energy            0.4314    0.4314    0.4639    0.4639    0.5843    0.5854
          Occ. No.          0.0000    0.0000    0.0000    0.0000    0.0000    0.0000
 
        1 H1     1s        -0.0211    0.0000    0.0000   -0.3285    0.0000   -0.6536
        2 H1     1s        -0.9969    0.0000   -0.0000    0.1247    0.0000    0.6307
        3 H1     2px       -0.0018    0.0155    0.0076   -0.0227   -0.0261   -0.0490
[...]
       31 C1     1s        -0.0000    0.0516    0.0216    0.0000   -0.0000   -0.0068
       32 C1     1s         0.0000   -0.0558   -0.0398   -0.0000    0.0000    0.0268
       33 C1     1s         0.0001   -2.8175   -2.1381   -0.0001   -0.0000   -0.0532
       34 C1     1s        -0.0000    0.0199    0.0098    0.0000    0.0000    0.0002
       35 C1     2px        0.0123    0.1707    0.1049    0.2103    0.3113   -0.0014
       36 C1     2px        0.7958    1.1875    0.1478    1.5138   -0.4823    0.0336
       37 C1     2px        0.0003    0.0004   -0.0001    0.0007   -0.0027    0.0007
       38 C1     2py       -0.0123    0.1707    0.1049   -0.2103   -0.3113   -0.0014
       39 C1     2py       -0.7959    1.1875    0.1479   -1.5138    0.4823    0.0336
       40 C1     2py       -0.0003    0.0004   -0.0001   -0.0007    0.0027    0.0007
       41 C1     2pz        0.0000   -0.0000    0.0000    0.0000   -0.0000    0.0000
       42 C1     2pz       -0.0000   -0.0000   -0.0000    0.0000   -0.0000   -0.0000
       43 C1     2pz       -0.0000   -0.0000    0.0000    0.0000    0.0000    0.0000
       44 C1     3d2-      -0.0000    0.0169   -0.0526   -0.0000   -0.0000   -0.1188
       45 C1     3d1-       0.0000    0.0000    0.0000    0.0000   -0.0000    0.0000
       46 C1     3d0       -0.0000    0.0314    0.0210    0.0000    0.0000    0.0758
       47 C1     3d1+      -0.0000    0.0000    0.0000    0.0000    0.0000    0.0000
       48 C1     3d2+       0.0124    0.0000   -0.0000    0.0127   -0.0398    0.0000
       49 C2     1s         0.0446   -0.0258   -0.0108   -0.0187    0.0000   -0.0068
       50 C2     1s        -0.0484    0.0279    0.0199    0.0345    0.0000    0.0268
       51 C2     1s        -2.4401    1.4087    1.0690    1.8516    0.0000   -0.0532
       52 C2     1s         0.0172   -0.0099   -0.0049   -0.0085    0.0000    0.0002
       53 C2     2px       -0.2043    0.1127    0.1383    0.0856    0.1139    0.0018
       54 C2     2px       -1.5505    0.5588    0.5808   -0.1021   -0.1765   -0.0459
       55 C2     2px       -0.0006    0.0002    0.0002   -0.0002   -0.0010   -0.0010
       56 C2     2py        0.0457   -0.0458    0.2296   -0.1769    0.4252   -0.0005
       57 C2     2py       -0.1671   -1.1588    1.7638   -1.0807   -0.6588    0.0123
       58 C2     2py       -0.0001   -0.0004    0.0008   -0.0004   -0.0038    0.0003
       59 C2     2pz        0.0000    0.0000    0.0000   -0.0000    0.0000   -0.0000
       60 C2     2pz       -0.0000   -0.0000   -0.0000    0.0000   -0.0000    0.0000
       61 C2     2pz       -0.0000    0.0000    0.0000    0.0000    0.0000   -0.0000
       62 C2     3d2-      -0.0019    0.0135   -0.0226   -0.0173    0.0345    0.0594
       63 C2     3d1-       0.0000    0.0000   -0.0000    0.0000    0.0000   -0.0000
       64 C2     3d0        0.0272   -0.0157   -0.0105   -0.0182   -0.0000    0.0758
       65 C2     3d1+      -0.0000    0.0000    0.0000    0.0000    0.0000   -0.0000
       66 C2     3d2+       0.0158   -0.0019    0.0173    0.0426    0.0199   -0.1029
       67 C3     1s        -0.0446   -0.0258   -0.0108    0.0187   -0.0000   -0.0068
       68 C3     1s         0.0484    0.0279    0.0199   -0.0345   -0.0000    0.0268
       69 C3     1s         2.4400    1.4088    1.0691   -1.8516   -0.0000   -0.0532
       70 C3     1s        -0.0172   -0.0099   -0.0049    0.0085   -0.0000    0.0002
       71 C3     2px       -0.0457   -0.0458    0.2296    0.1769   -0.4252   -0.0005
       72 C3     2px        0.1672   -1.1588    1.7637    1.0808    0.6588    0.0123
       73 C3     2px        0.0001   -0.0004    0.0008    0.0004    0.0038    0.0003
       74 C3     2py        0.2042    0.1127    0.1383   -0.0856   -0.1139    0.0018
       75 C3     2py        1.5505    0.5588    0.5808    0.1021    0.1765   -0.0459
       76 C3     2py        0.0006    0.0002    0.0002    0.0002    0.0010   -0.0010
       77 C3     2pz        0.0000   -0.0000    0.0000    0.0000    0.0000   -0.0000
       78 C3     2pz       -0.0000   -0.0000    0.0000    0.0000   -0.0000   -0.0000
       79 C3     2pz        0.0000   -0.0000    0.0000    0.0000    0.0000    0.0000
       80 C3     3d2-       0.0019    0.0135   -0.0226    0.0173   -0.0345    0.0594
       81 C3     3d1-      -0.0000   -0.0000    0.0000   -0.0000   -0.0000   -0.0000
       82 C3     3d0       -0.0272   -0.0157   -0.0105    0.0182    0.0000    0.0758
       83 C3     3d1+       0.0000    0.0000   -0.0000   -0.0000   -0.0000   -0.0000
       84 C3     3d2+       0.0158    0.0019   -0.0173    0.0426    0.0199    0.1029
       85 C4     1s        -0.0000    0.0516   -0.0216   -0.0000   -0.0000   -0.0068
       86 C4     1s         0.0000   -0.0558    0.0398    0.0000    0.0000    0.0268
       87 C4     1s         0.0001   -2.8175    2.1381    0.0001   -0.0000   -0.0532
       88 C4     1s        -0.0000    0.0199   -0.0098   -0.0000   -0.0000    0.0002
       89 C4     2px       -0.0123   -0.1707    0.1049    0.2103    0.3113    0.0014
       90 C4     2px       -0.7958   -1.1875    0.1478    1.5138   -0.4823   -0.0336
       91 C4     2px       -0.0003   -0.0004   -0.0001    0.0007   -0.0027   -0.0007
       92 C4     2py        0.0123   -0.1707    0.1049   -0.2103   -0.3113    0.0014
       93 C4     2py        0.7959   -1.1875    0.1479   -1.5138    0.4823   -0.0336
       94 C4     2py        0.0003   -0.0004   -0.0001   -0.0007    0.0027   -0.0007
       95 C4     2pz       -0.0000    0.0000    0.0000   -0.0000   -0.0000    0.0000
       96 C4     2pz       -0.0000    0.0000   -0.0000    0.0000    0.0000   -0.0000
       97 C4     2pz        0.0000   -0.0000    0.0000    0.0000   -0.0000    0.0000
       98 C4     3d2-      -0.0000    0.0169    0.0526    0.0000   -0.0000   -0.1188
       99 C4     3d1-      -0.0000    0.0000   -0.0000    0.0000   -0.0000    0.0000
      100 C4     3d0       -0.0000    0.0314   -0.0210   -0.0000    0.0000    0.0758
      101 C4     3d1+       0.0000    0.0000    0.0000   -0.0000   -0.0000    0.0000
      102 C4     3d2+       0.0124    0.0000    0.0000   -0.0127    0.0398   -0.0000
      103 C5     1s         0.0446   -0.0258    0.0108    0.0187   -0.0000   -0.0068
      104 C5     1s        -0.0484    0.0279   -0.0199   -0.0345   -0.0000    0.0268
      105 C5     1s        -2.4401    1.4087   -1.0690   -1.8516   -0.0000   -0.0532
      106 C5     1s         0.0172   -0.0099    0.0049    0.0085   -0.0000    0.0002
      107 C5     2px        0.2043   -0.1127    0.1383    0.0856    0.1139   -0.0018
      108 C5     2px        1.5505   -0.5588    0.5808   -0.1021   -0.1765    0.0459
      109 C5     2px        0.0006   -0.0002    0.0002   -0.0002   -0.0010    0.0010
      110 C5     2py       -0.0457    0.0458    0.2296   -0.1769    0.4252    0.0005
      111 C5     2py        0.1671    1.1588    1.7638   -1.0807   -0.6588   -0.0123
      112 C5     2py        0.0001    0.0004    0.0008   -0.0004   -0.0038   -0.0003
      113 C5     2pz        0.0000    0.0000    0.0000   -0.0000    0.0000   -0.0000
      114 C5     2pz       -0.0000    0.0000    0.0000   -0.0000   -0.0000    0.0000
      115 C5     2pz        0.0000   -0.0000   -0.0000    0.0000    0.0000    0.0000
      116 C5     3d2-      -0.0019    0.0135    0.0226    0.0173   -0.0345    0.0594
      117 C5     3d1-       0.0000    0.0000   -0.0000    0.0000    0.0000   -0.0000
      118 C5     3d0        0.0272   -0.0157    0.0105    0.0182    0.0000    0.0758
      119 C5     3d1+       0.0000    0.0000    0.0000    0.0000    0.0000   -0.0000
      120 C5     3d2+       0.0158   -0.0019   -0.0173   -0.0426   -0.0199   -0.1029
      121 C6     1s        -0.0446   -0.0258    0.0108   -0.0187    0.0000   -0.0068
      122 C6     1s         0.0484    0.0279   -0.0199    0.0345    0.0000    0.0268
      123 C6     1s         2.4400    1.4088   -1.0691    1.8516    0.0000   -0.0532
      124 C6     1s        -0.0172   -0.0099    0.0049   -0.0085    0.0000    0.0002
      125 C6     2px        0.0457    0.0458    0.2296    0.1769   -0.4252    0.0005
      126 C6     2px       -0.1672    1.1588    1.7637    1.0808    0.6588   -0.0123
      127 C6     2px       -0.0001    0.0004    0.0008    0.0004    0.0038   -0.0003
      128 C6     2py       -0.2042   -0.1127    0.1383   -0.0856   -0.1139   -0.0018
      129 C6     2py       -1.5505   -0.5588    0.5808    0.1021    0.1765    0.0459
      130 C6     2py       -0.0006   -0.0002    0.0002    0.0002    0.0010    0.0010
      131 C6     2pz        0.0000    0.0000    0.0000   -0.0000    0.0000    0.0000
      132 C6     2pz        0.0000    0.0000   -0.0000    0.0000   -0.0000   -0.0000
      133 C6     2pz       -0.0000    0.0000   -0.0000   -0.0000    0.0000    0.0000
      134 C6     3d2-       0.0019    0.0135    0.0226   -0.0173    0.0345    0.0594
      135 C6     3d1-       0.0000   -0.0000   -0.0000   -0.0000   -0.0000    0.0000
      136 C6     3d0       -0.0272   -0.0157    0.0105   -0.0182   -0.0000    0.0758
      137 C6     3d1+       0.0000   -0.0000    0.0000   -0.0000   -0.0000   -0.0000
      138 C6     3d2+       0.0158    0.0019    0.0173   -0.0426   -0.0199    0.1029
--
 
 
++    Molecular charges:
      ------------------
 
      Mulliken charges per centre and basis function type
      ---------------------------------------------------
 
                H1      H2      H3      H4      H5      H6      C1      C2      C3      C4      C5      C6    
      1s       0.9382  0.9382  0.9382  0.9382  0.9382  0.9382  3.1296  3.1296  3.1296  3.1296  3.1296  3.1296
      2px      0.0129  0.0210  0.0049  0.0129  0.0210  0.0049  0.9236  0.9130  0.9343  0.9236  0.9130  0.9343
      2pz      0.0055  0.0055  0.0055  0.0055  0.0055  0.0055  0.9742  0.9742  0.9742  0.9742  0.9742  0.9742
      2py      0.0129  0.0049  0.0210  0.0129  0.0049  0.0210  0.9236  0.9343  0.9130  0.9236  0.9343  0.9130
      3d2+     0.0000  0.0000  0.0000  0.0000  0.0000  0.0000  0.0237  0.0292  0.0292  0.0237  0.0292  0.0292
      3d1+     0.0000  0.0000  0.0000  0.0000  0.0000  0.0000  0.0101  0.0060  0.0143  0.0101  0.0060  0.0143
      3d0      0.0000  0.0000  0.0000  0.0000  0.0000  0.0000  0.0044  0.0044  0.0044  0.0044  0.0044  0.0044
      3d1-     0.0000  0.0000  0.0000  0.0000  0.0000  0.0000  0.0101  0.0143  0.0060  0.0101  0.0143  0.0060
      3d2-     0.0000  0.0000  0.0000  0.0000  0.0000  0.0000  0.0310  0.0255  0.0255  0.0310  0.0255  0.0255
      Total    0.9696  0.9696  0.9696  0.9696  0.9696  0.9696  6.0304  6.0304  6.0304  6.0304  6.0304  6.0304
 
      N-E      0.0304  0.0304  0.0304  0.0304  0.0304  0.0304 -0.0304 -0.0304 -0.0304 -0.0304 -0.0304 -0.0304
 
      Total electronic charge=   42.000000
 
      Total            charge=   -0.000000
--
 
 
++    Molecular properties:
      ---------------------
 
      Charge (e):
                      =   -0.0000
      Dipole Moment (debye):
      Origin of the operator (angstrom)=    0.0000    0.0000    0.0000
                   X=  4.2165E-12               Y=  5.4226E-12               Z=  1.5274E-15           Total=  6.8690E-12
      Quadrupole Moment (debye*angstrom):
      Origin of the operator (angstrom)=   -0.0000   -0.0000    0.0000
                  XX= -3.1701E+01              XY=  1.1237E-06              XZ= -2.8672E-15              YY= -3.1701E+01
                  YZ=  1.0861E-15              ZZ= -4.0657E+01
      In traceless form (debye*angstrom)
                  XX=  4.4780E+00              XY=  1.6856E-06              XZ= -4.3008E-15              YY=  4.4780E+00
                  YZ=  1.6292E-15              ZZ= -8.9560E+00
--
 
 
      Input file to MOLDEN was generated!
 
 
WARNING!
Default frozen orbitals as non valence orbitals is overwritten by user input.
Default values:   6
 
 
      Cartesian coordinates in angstrom:
      -----------------------------------------------------
      No.  Label        X            Y            Z        
      -----------------------------------------------------
       1   H1         1.76548245   1.76548245   0.00000000
       2   H2        -2.41169349   0.64621141   0.00000000
       3   H3         0.64621141  -2.41169349   0.00000000
       4   H4        -1.76548245  -1.76548245   0.00000000
       5   H5         2.41169349  -0.64621141   0.00000000
       6   H6        -0.64621141   2.41169349   0.00000000
       7   C1         0.99217134   0.99217134   0.00000000
       8   C2        -1.35533107   0.36315984   0.00000000
       9   C3         0.36315984  -1.35533107   0.00000000
      10   C4        -0.99217134  -0.99217134   0.00000000
      11   C5         1.35533107  -0.36315984   0.00000000
      12   C6        -0.36315984   1.35533107   0.00000000
      -----------------------------------------------------
      Nuclear repulsion energy =  202.19885511
 
      Contents of RUNFILE file:
      -------------------------
 
      Symmetry species                           1
                                                 a
      Number of basis functions                138
      Frozen occupied orbitals                   0
      Active occupied orbitals                  21
      Active external orbitals                 117
      Deleted external orbitals                  0
 
 
      Energies of the active occupied orbitals
 
      symmetry species 1                   -11.244011    -11.243477    -11.243477    -11.242323    -11.242323
                                           -11.241761     -1.143269     -1.009722     -1.009722     -0.818956
                                            -0.818956     -0.701095     -0.639765     -0.612840     -0.582340
                                            -0.582340     -0.496259     -0.490331     -0.490331     -0.332798
                                            -0.332798
 
 
      Energies of the active external orbitals
 
      symmetry species 1                     0.134546      0.134546      0.180530      0.218711      0.218711
                                             0.253755      0.253755      0.269496      0.345929      0.431449
                                             0.431449      0.463937      0.463937      0.584319      0.585402
                                             0.654049      0.679723      0.683987      0.725798      0.725798
                                             0.731404      0.731404      0.735100      0.735100      0.737045
                                             0.820491      0.820491      0.845345      0.845345      0.881783
                                             0.881783      0.905726      0.970632      0.979458      1.047355
                                             1.047355      1.049669      1.112540      1.112540      1.116558
                                             1.148166      1.233751      1.233751      1.240696      1.240696
                                             1.274333      1.313288      1.313288      1.457517      1.464362
                                             1.464362      1.606703      1.711991      1.736491      1.736491
                                             1.760429      1.781923      1.855250      1.855250      1.858946
                                             1.858947      1.894457      1.947022      1.947022      1.950568
                                             1.950568      2.079895      2.079895      2.106859      2.111485
                                             2.111485      2.147272      2.147272      2.162808      2.219989
                                             2.219989      2.254242      2.254242      2.274137      2.486208
                                             2.543986      2.672720      2.712827      2.712828      2.757898
                                             2.757898      2.881864      2.881865      2.938280      3.103540
                                             3.236816      3.236816      3.968158     19.372684     19.742697
                                            19.742697     20.045978     20.045979     20.316026     22.361275
                                            22.454885     22.601621     22.601621     22.666902     22.666902
                                            22.740833     23.074855     23.074855     23.211562     23.223397
                                            23.223397     23.728947     23.853093     23.853094     24.068617
                                            24.068617     24.278406
 
 
      ********************************************************************************************************
      *                                               Results                                                *
      ********************************************************************************************************
 
 Conventional algorithm used...
 
      Input file to MOLDEN was generated!
 

       SCF energy                           =     -230.7230078034 a.u.
       Second-order correlation energy      =       -1.0054595237 a.u.

       Total energy                         =     -231.7284673271 a.u.
       Reference weight ( Cref**2 )         =        0.76427
 
::    Total MBPT2 energy                             -231.7284673271
 
 
++    Molecular properties:
      ---------------------
 
      Charge (e):
                      =   -0.0000
      Dipole Moment (debye):
      Origin of the operator (angstrom)=    0.0000    0.0000    0.0000
                   X=  4.2261E-12               Y=  5.1991E-12               Z=  1.5012E-15           Total=  6.7000E-12
      Quadrupole Moment (debye*angstrom):
      Origin of the operator (angstrom)=   -0.0000   -0.0000    0.0000
                  XX= -3.2355E+01              XY=  9.8162E-07              XZ= -2.8028E-15              YY= -3.2355E+01
                  YZ=  1.1730E-15              ZZ= -3.9952E+01
      In traceless form (debye*angstrom)
                  XX=  3.7985E+00              XY=  1.4724E-06              XZ= -4.2042E-15              YY=  3.7985E+00
                  YZ=  1.7595E-15              ZZ= -7.5970E+00
--
 
 
       Zeroth-order energy (E0)             =       47.1610676101 a.u.
 
       Shanks-type energy S1(E)             =     -231.7321185620 a.u.
 
 


       Data processing and timing information:

       Section                                              time(sec)
                                                          CPU  Elapsed

      Input data processing                              0.01      0.02
      Transformation of integrals                       20.09     42.28
      MBPT2 calculations (BJAI)                         13.52     16.46
      Total MBPT2 calculations                          33.62     58.76
 
 
 ###############################################################################
 ###############################################################################
 ###                                                                         ###
 ###                                                                         ###
 ###    WARNING: RunFile label nBas                                          ###
 ###    was used      123 times                                              ###
 ###                                                                         ###
 ###                                                                         ###
 ###############################################################################
 ###############################################################################
--- Stop Module: last_energy at Sat Dec  6 00:15:19 2025 /rc=_RC_ALL_IS_WELL_ ---
*** files: benzene.GssOrb benzene.guessorb.molden benzene.mp2.molden benzene.scf.molden benzene.MP2Orb benzene.ScfOrb xmldump
    saved to directory /home/charlie/input_examples/molcas/benzene
--- Module last_energy spent 1 minute 16 seconds ---

.##################.
.# Happy landing! #.
.##################.

    Timing: Wall=176.87 User=406.88 System=92.80
