[Molden Format]
[N_Atoms]
 12
[Atoms] (AU)
H1          1      1           3.33627831      3.33627831      0.00000000
H2          2      1          -4.55744020      1.22116258      0.00000000
H3          3      1           1.22116258     -4.55744020      0.00000000
H4          4      1          -3.33627831     -3.33627831      0.00000000
H5          5      1           4.55744020     -1.22116258      0.00000000
H6          6      1          -1.22116258      4.55744020      0.00000000
C1          7      6           1.87493210      1.87493210      0.00000000
C2          8      6          -2.56120453      0.68627263      0.00000000
C3          9      6           0.68627263     -2.56120453      0.00000000
C4         10      6          -1.87493210     -1.87493210      0.00000000
C5         11      6           2.56120453     -0.68627263      0.00000000
C6         12      6          -0.68627263      2.56120453      0.00000000
[5D]
[Charge] (Mulliken)
 3.036553889298454E-002
 3.036544543989461E-002
 3.036544544085196E-002
 3.036553889440530E-002
 3.036544543948227E-002
 3.036544543981989E-002
 -3.036559180903886E-002
 -3.036541897991363E-002
 -3.036541898088974E-002
 -3.036559181387233E-002
 -3.036541898188361E-002
 -3.036541898191114E-002
[GTO] (AU)
   1
   s   4
  1.301000000E+01  1.968498999E-02
  1.962000000E+00  1.379769298E-01
  4.446000000E-01  4.781477569E-01
  1.220000000E-01  5.012397451E-01
   s   1
  1.220000000E-01  1.000000000E+00
   p   1
  7.270000000E-01  1.000000000E+00
 
   2
   s   4
  1.301000000E+01  1.968498999E-02
  1.962000000E+00  1.379769298E-01
  4.446000000E-01  4.781477569E-01
  1.220000000E-01  5.012397451E-01
   s   1
  1.220000000E-01  1.000000000E+00
   p   1
  7.270000000E-01  1.000000000E+00
 
   3
   s   4
  1.301000000E+01  1.968498999E-02
  1.962000000E+00  1.379769298E-01
  4.446000000E-01  4.781477569E-01
  1.220000000E-01  5.012397451E-01
   s   1
  1.220000000E-01  1.000000000E+00
   p   1
  7.270000000E-01  1.000000000E+00
 
   4
   s   4
  1.301000000E+01  1.968498999E-02
  1.962000000E+00  1.379769298E-01
  4.446000000E-01  4.781477569E-01
  1.220000000E-01  5.012397451E-01
   s   1
  1.220000000E-01  1.000000000E+00
   p   1
  7.270000000E-01  1.000000000E+00
 
   5
   s   4
  1.301000000E+01  1.968498999E-02
  1.962000000E+00  1.379769298E-01
  4.446000000E-01  4.781477569E-01
  1.220000000E-01  5.012397451E-01
   s   1
  1.220000000E-01  1.000000000E+00
   p   1
  7.270000000E-01  1.000000000E+00
 
   6
   s   4
  1.301000000E+01  1.968498999E-02
  1.962000000E+00  1.379769298E-01
  4.446000000E-01  4.781477569E-01
  1.220000000E-01  5.012397451E-01
   s   1
  1.220000000E-01  1.000000000E+00
   p   1
  7.270000000E-01  1.000000000E+00
 
   7
   s   9
  6.665000000E+03  6.920001793E-04
  1.000000000E+03  5.329001381E-03
  2.280000000E+02  2.707700701E-02
  6.471000000E+01  1.017180264E-01
  2.106000000E+01  2.747400712E-01
  7.495000000E+00  4.485641162E-01
  2.797000000E+00  2.850740738E-01
  5.215000000E-01  1.520400394E-02
  1.596000000E-01 -3.191000827E-03
   s   9
  6.665000000E+03 -1.460000642E-04
  1.000000000E+03 -1.154000508E-03
  2.280000000E+02 -5.725002519E-03
  6.471000000E+01 -2.331201026E-02
  2.106000000E+01 -6.395502813E-02
  7.495000000E+00 -1.499810660E-01
  2.797000000E+00 -1.272620560E-01
  5.215000000E-01  5.445292395E-01
  1.596000000E-01  5.804962554E-01
   s   1
  1.596000000E-01  1.000000000E+00
   s   1
  4.530000000E+00  1.000000000E+00
   p   4
  9.439000000E+00  3.810902127E-02
  2.002000000E+00  2.094801169E-01
  5.456000000E-01  5.085572839E-01
  1.517000000E-01  4.688422617E-01
   p   1
  1.517000000E-01  1.000000000E+00
   p   1
  1.455700000E+01  1.000000000E+00
   d   1
  5.500000000E-01  1.000000000E+00
 
   8
   s   9
  6.665000000E+03  6.920001793E-04
  1.000000000E+03  5.329001381E-03
  2.280000000E+02  2.707700701E-02
  6.471000000E+01  1.017180264E-01
  2.106000000E+01  2.747400712E-01
  7.495000000E+00  4.485641162E-01
  2.797000000E+00  2.850740738E-01
  5.215000000E-01  1.520400394E-02
  1.596000000E-01 -3.191000827E-03
   s   9
  6.665000000E+03 -1.460000642E-04
  1.000000000E+03 -1.154000508E-03
  2.280000000E+02 -5.725002519E-03
  6.471000000E+01 -2.331201026E-02
  2.106000000E+01 -6.395502813E-02
  7.495000000E+00 -1.499810660E-01
  2.797000000E+00 -1.272620560E-01
  5.215000000E-01  5.445292395E-01
  1.596000000E-01  5.804962554E-01
   s   1
  1.596000000E-01  1.000000000E+00
   s   1
  4.530000000E+00  1.000000000E+00
   p   4
  9.439000000E+00  3.810902127E-02
  2.002000000E+00  2.094801169E-01
  5.456000000E-01  5.085572839E-01
  1.517000000E-01  4.688422617E-01
   p   1
  1.517000000E-01  1.000000000E+00
   p   1
  1.455700000E+01  1.000000000E+00
   d   1
  5.500000000E-01  1.000000000E+00
 
   9
   s   9
  6.665000000E+03  6.920001793E-04
  1.000000000E+03  5.329001381E-03
  2.280000000E+02  2.707700701E-02
  6.471000000E+01  1.017180264E-01
  2.106000000E+01  2.747400712E-01
  7.495000000E+00  4.485641162E-01
  2.797000000E+00  2.850740738E-01
  5.215000000E-01  1.520400394E-02
  1.596000000E-01 -3.191000827E-03
   s   9
  6.665000000E+03 -1.460000642E-04
  1.000000000E+03 -1.154000508E-03
  2.280000000E+02 -5.725002519E-03
  6.471000000E+01 -2.331201026E-02
  2.106000000E+01 -6.395502813E-02
  7.495000000E+00 -1.499810660E-01
  2.797000000E+00 -1.272620560E-01
  5.215000000E-01  5.445292395E-01
  1.596000000E-01  5.804962554E-01
   s   1
  1.596000000E-01  1.000000000E+00
   s   1
  4.530000000E+00  1.000000000E+00
   p   4
  9.439000000E+00  3.810902127E-02
  2.002000000E+00  2.094801169E-01
  5.456000000E-01  5.085572839E-01
  1.517000000E-01  4.688422617E-01
   p   1
  1.517000000E-01  1.000000000E+00
   p   1
  1.455700000E+01  1.000000000E+00
   d   1
  5.500000000E-01  1.000000000E+00
 
  10
   s   9
  6.665000000E+03  6.920001793E-04
  1.000000000E+03  5.329001381E-03
  2.280000000E+02  2.707700701E-02
  6.471000000E+01  1.017180264E-01
  2.106000000E+01  2.747400712E-01
  7.495000000E+00  4.485641162E-01
  2.797000000E+00  2.850740738E-01
  5.215000000E-01  1.520400394E-02
  1.596000000E-01 -3.191000827E-03
   s   9
  6.665000000E+03 -1.460000642E-04
  1.000000000E+03 -1.154000508E-03
  2.280000000E+02 -5.725002519E-03
  6.471000000E+01 -2.331201026E-02
  2.106000000E+01 -6.395502813E-02
  7.495000000E+00 -1.499810660E-01
  2.797000000E+00 -1.272620560E-01
  5.215000000E-01  5.445292395E-01
  1.596000000E-01  5.804962554E-01
   s   1
  1.596000000E-01  1.000000000E+00
   s   1
  4.530000000E+00  1.000000000E+00
   p   4
  9.439000000E+00  3.810902127E-02
  2.002000000E+00  2.094801169E-01
  5.456000000E-01  5.085572839E-01
  1.517000000E-01  4.688422617E-01
   p   1
  1.517000000E-01  1.000000000E+00
   p   1
  1.455700000E+01  1.000000000E+00
   d   1
  5.500000000E-01  1.000000000E+00
 
  11
   s   9
  6.665000000E+03  6.920001793E-04
  1.000000000E+03  5.329001381E-03
  2.280000000E+02  2.707700701E-02
  6.471000000E+01  1.017180264E-01
  2.106000000E+01  2.747400712E-01
  7.495000000E+00  4.485641162E-01
  2.797000000E+00  2.850740738E-01
  5.215000000E-01  1.520400394E-02
  1.596000000E-01 -3.191000827E-03
   s   9
  6.665000000E+03 -1.460000642E-04
  1.000000000E+03 -1.154000508E-03
  2.280000000E+02 -5.725002519E-03
  6.471000000E+01 -2.331201026E-02
  2.106000000E+01 -6.395502813E-02
  7.495000000E+00 -1.499810660E-01
  2.797000000E+00 -1.272620560E-01
  5.215000000E-01  5.445292395E-01
  1.596000000E-01  5.804962554E-01
   s   1
  1.596000000E-01  1.000000000E+00
   s   1
  4.530000000E+00  1.000000000E+00
   p   4
  9.439000000E+00  3.810902127E-02
  2.002000000E+00  2.094801169E-01
  5.456000000E-01  5.085572839E-01
  1.517000000E-01  4.688422617E-01
   p   1
  1.517000000E-01  1.000000000E+00
   p   1
  1.455700000E+01  1.000000000E+00
   d   1
  5.500000000E-01  1.000000000E+00
 
  12
   s   9
  6.665000000E+03  6.920001793E-04
  1.000000000E+03  5.329001381E-03
  2.280000000E+02  2.707700701E-02
  6.471000000E+01  1.017180264E-01
  2.106000000E+01  2.747400712E-01
  7.495000000E+00  4.485641162E-01
  2.797000000E+00  2.850740738E-01
  5.215000000E-01  1.520400394E-02
  1.596000000E-01 -3.191000827E-03
   s   9
  6.665000000E+03 -1.460000642E-04
  1.000000000E+03 -1.154000508E-03
  2.280000000E+02 -5.725002519E-03
  6.471000000E+01 -2.331201026E-02
  2.106000000E+01 -6.395502813E-02
  7.495000000E+00 -1.499810660E-01
  2.797000000E+00 -1.272620560E-01
  5.215000000E-01  5.445292395E-01
  1.596000000E-01  5.804962554E-01
   s   1
  1.596000000E-01  1.000000000E+00
   s   1
  4.530000000E+00  1.000000000E+00
   p   4
  9.439000000E+00  3.810902127E-02
  2.002000000E+00  2.094801169E-01
  5.456000000E-01  5.085572839E-01
  1.517000000E-01  4.688422617E-01
   p   1
  1.517000000E-01  1.000000000E+00
   p   1
  1.455700000E+01  1.000000000E+00
   d   1
  5.500000000E-01  1.000000000E+00
 
[MO]
Sym=     1a  
Ene=   -11.2440
Spin= Alpha
Occup=    2.00000
   1        -0.00022982
   2         0.00079948
   3         0.00009668
   4         0.00009668
   5         0.00000000
   6        -0.00022981
   7         0.00079948
   8        -0.00013206
   9         0.00003538
  10         0.00000000
  11        -0.00022981
  12         0.00079948
  13         0.00003538
  14        -0.00013206
  15         0.00000000
  16        -0.00022982
  17         0.00079948
  18        -0.00009668
  19        -0.00009668
  20         0.00000000
  21        -0.00022981
  22         0.00079948
  23         0.00013206
  24        -0.00003538
  25         0.00000000
  26        -0.00022981
  27         0.00079948
  28        -0.00003538
  29         0.00013206
  30        -0.00000000
  31         0.40846880
  32         0.00281595
  33        -0.00216362
  34         0.00010302
  35         0.00009216
  36         0.00009216
  37         0.00000000
  38        -0.00020618
  39        -0.00020618
  40        -0.00000000
  41         0.00000560
  42         0.00000560
  43        -0.00000000
  44        -0.00005865
  45        -0.00000000
  46         0.00000000
  47        -0.00000000
  48         0.00009155
  49         0.40845937
  50         0.00281586
  51        -0.00216349
  52         0.00010301
  53        -0.00012589
  54         0.00003373
  55        -0.00000000
  56         0.00028166
  57        -0.00007548
  58         0.00000000
  59        -0.00000766
  60         0.00000205
  61         0.00000000
  62        -0.00005864
  63         0.00000000
  64        -0.00000000
  65         0.00007929
  66        -0.00004577
  67         0.40845937
  68         0.00281586
  69        -0.00216349
  70         0.00010301
  71         0.00003373
  72        -0.00012589
  73        -0.00000000
  74        -0.00007548
  75         0.00028166
  76         0.00000000
  77         0.00000205
  78        -0.00000766
  79         0.00000000
  80        -0.00005864
  81        -0.00000000
  82         0.00000000
  83        -0.00007929
  84        -0.00004577
  85         0.40846880
  86         0.00281595
  87        -0.00216362
  88         0.00010302
  89        -0.00009216
  90        -0.00009216
  91        -0.00000000
  92         0.00020618
  93         0.00020618
  94         0.00000000
  95        -0.00000560
  96        -0.00000560
  97         0.00000000
  98        -0.00005865
  99        -0.00000000
 100         0.00000000
 101        -0.00000000
 102         0.00009155
 103         0.40845937
 104         0.00281586
 105        -0.00216349
 106         0.00010301
 107         0.00012589
 108        -0.00003373
 109        -0.00000000
 110        -0.00028166
 111         0.00007548
 112        -0.00000000
 113         0.00000766
 114        -0.00000205
 115        -0.00000000
 116        -0.00005864
 117         0.00000000
 118        -0.00000000
 119         0.00007929
 120        -0.00004577
 121         0.40845937
 122         0.00281586
 123        -0.00216349
 124         0.00010301
 125        -0.00003373
 126         0.00012589
 127        -0.00000000
 128         0.00007548
 129        -0.00028166
 130        -0.00000000
 131        -0.00000205
 132         0.00000766
 133         0.00000000
 134        -0.00005864
 135        -0.00000000
 136         0.00000000
 137        -0.00007929
 138        -0.00004577
Sym=     2a  
Ene=   -11.2430
Spin= Alpha
Occup=    2.00000
   1        -0.00025446
   2         0.00073111
   3         0.00016577
   4         0.00016577
   5        -0.00000000
   6         0.00012722
   7        -0.00036555
   8         0.00010938
   9        -0.00004465
  10         0.00000000
  11         0.00012722
  12        -0.00036556
  13        -0.00004465
  14         0.00010938
  15        -0.00000000
  16         0.00025446
  17        -0.00073111
  18         0.00016577
  19         0.00016577
  20        -0.00000000
  21        -0.00012722
  22         0.00036555
  23         0.00010938
  24        -0.00004465
  25        -0.00000000
  26        -0.00012722
  27         0.00036556
  28        -0.00004465
  29         0.00010938
  30         0.00000000
  31         0.57797773
  32         0.00487649
  33        -0.00559748
  34         0.00014771
  35         0.00002734
  36         0.00002734
  37         0.00000000
  38         0.00025074
  39         0.00025075
  40        -0.00000000
  41         0.00001735
  42         0.00001735
  43        -0.00000000
  44        -0.00006556
  45        -0.00000000
  46         0.00000000
  47        -0.00000000
  48         0.00007200
  49        -0.28898025
  50        -0.00243816
  51         0.00279858
  52        -0.00007385
  53        -0.00000119
  54        -0.00007914
  55        -0.00000000
  56         0.00052364
  57         0.00126939
  58        -0.00000000
  59         0.00001792
  60         0.00001948
  61         0.00000000
  62         0.00003277
  63         0.00000000
  64         0.00000000
  65        -0.00004665
  66        -0.00000880
  67        -0.28898430
  68        -0.00243820
  69         0.00279862
  70        -0.00007385
  71        -0.00007914
  72        -0.00000119
  73         0.00000000
  74         0.00126939
  75         0.00052365
  76        -0.00000000
  77         0.00001948
  78         0.00001792
  79         0.00000000
  80         0.00003277
  81        -0.00000000
  82         0.00000000
  83         0.00004665
  84        -0.00000880
  85        -0.57797773
  86        -0.00487649
  87         0.00559748
  88        -0.00014771
  89         0.00002734
  90         0.00002734
  91         0.00000000
  92         0.00025074
  93         0.00025075
  94         0.00000000
  95         0.00001735
  96         0.00001735
  97        -0.00000000
  98         0.00006556
  99        -0.00000000
 100         0.00000000
 101         0.00000000
 102        -0.00007200
 103         0.28898025
 104         0.00243816
 105        -0.00279858
 106         0.00007385
 107        -0.00000119
 108        -0.00007914
 109        -0.00000000
 110         0.00052364
 111         0.00126939
 112         0.00000000
 113         0.00001792
 114         0.00001948
 115         0.00000000
 116        -0.00003277
 117        -0.00000000
 118         0.00000000
 119         0.00004665
 120         0.00000880
 121         0.28898431
 122         0.00243820
 123        -0.00279862
 124         0.00007385
 125        -0.00007914
 126        -0.00000119
 127        -0.00000000
 128         0.00126939
 129         0.00052365
 130         0.00000000
 131         0.00001948
 132         0.00001792
 133         0.00000000
 134        -0.00003277
 135        -0.00000000
 136        -0.00000000
 137        -0.00004665
 138         0.00000880
Sym=     3a  
Ene=   -11.2430
Spin= Alpha
Occup=    2.00000
   1        -0.00000000
   2         0.00000000
   3        -0.00001210
   4         0.00001210
   5         0.00000000
   6         0.00022036
   7        -0.00063316
   8         0.00019832
   9        -0.00004428
  10        -0.00000000
  11        -0.00022036
  12         0.00063316
  13         0.00004428
  14        -0.00019832
  15        -0.00000000
  16         0.00000000
  17        -0.00000000
  18        -0.00001210
  19         0.00001210
  20        -0.00000000
  21        -0.00022036
  22         0.00063316
  23         0.00019832
  24        -0.00004428
  25        -0.00000000
  26         0.00022036
  27        -0.00063316
  28         0.00004428
  29        -0.00019832
  30         0.00000000
  31         0.00000234
  32         0.00000002
  33        -0.00000002
  34         0.00000000
  35        -0.00006267
  36         0.00006267
  37         0.00000000
  38         0.00111179
  39        -0.00111179
  40        -0.00000000
  41         0.00001915
  42        -0.00001915
  43        -0.00000000
  44        -0.00000000
  45        -0.00000000
  46         0.00000000
  47         0.00003574
  48         0.00000000
  49        -0.50054076
  50        -0.00422314
  51         0.00484749
  52        -0.00012792
  53         0.00004381
  54         0.00003414
  55        -0.00000000
  56         0.00009314
  57        -0.00083884
  58         0.00000000
  59         0.00001701
  60        -0.00001858
  61         0.00000000
  62         0.00005677
  63         0.00000000
  64        -0.00000000
  65        -0.00004507
  66         0.00004665
  67         0.50053842
  68         0.00422312
  69        -0.00484747
  70         0.00012792
  71        -0.00003414
  72        -0.00004381
  73        -0.00000000
  74         0.00083885
  75        -0.00009314
  76         0.00000000
  77         0.00001858
  78        -0.00001701
  79        -0.00000000
  80        -0.00005677
  81         0.00000000
  82         0.00000000
  83        -0.00004507
  84        -0.00004665
  85        -0.00000234
  86        -0.00000002
  87         0.00000002
  88        -0.00000000
  89        -0.00006267
  90         0.00006267
  91         0.00000000
  92         0.00111179
  93        -0.00111179
  94        -0.00000000
  95         0.00001915
  96        -0.00001915
  97        -0.00000000
  98         0.00000000
  99         0.00000000
 100         0.00000000
 101        -0.00003574
 102        -0.00000000
 103         0.50054076
 104         0.00422314
 105        -0.00484749
 106         0.00012792
 107         0.00004381
 108         0.00003414
 109         0.00000000
 110         0.00009314
 111        -0.00083884
 112         0.00000000
 113         0.00001701
 114        -0.00001858
 115         0.00000000
 116        -0.00005677
 117         0.00000000
 118         0.00000000
 119         0.00004507
 120        -0.00004665
 121        -0.50053842
 122        -0.00422312
 123         0.00484747
 124        -0.00012792
 125        -0.00003414
 126        -0.00004381
 127        -0.00000000
 128         0.00083885
 129        -0.00009314
 130         0.00000000
 131         0.00001858
 132        -0.00001701
 133         0.00000000
 134         0.00005677
 135        -0.00000000
 136        -0.00000000
 137         0.00004507
 138         0.00004665
Sym=     4a  
Ene=   -11.2420
Spin= Alpha
Occup=    2.00000
   1         0.00054062
   2        -0.00051823
   3        -0.00026440
   4        -0.00026440
   5        -0.00000000
   6        -0.00027031
   7         0.00025913
   8        -0.00018365
   9         0.00003697
  10         0.00000000
  11        -0.00027032
  12         0.00025913
  13         0.00003697
  14        -0.00018365
  15        -0.00000000
  16         0.00054062
  17        -0.00051823
  18         0.00026440
  19         0.00026440
  20        -0.00000000
  21        -0.00027031
  22         0.00025913
  23         0.00018365
  24        -0.00003697
  25         0.00000000
  26        -0.00027032
  27         0.00025913
  28        -0.00003697
  29         0.00018365
  30         0.00000000
  31        -0.57830963
  32        -0.00535033
  33         0.00777828
  34        -0.00007752
  35        -0.00001255
  36        -0.00001255
  37        -0.00000000
  38        -0.00107705
  39        -0.00107705
  40         0.00000000
  41        -0.00002900
  42        -0.00002900
  43        -0.00000000
  44         0.00049418
  45        -0.00000000
  46         0.00000000
  47        -0.00000000
  48        -0.00003071
  49         0.28915955
  50         0.00267520
  51        -0.00388915
  52         0.00003876
  53        -0.00003223
  54        -0.00008597
  55         0.00000000
  56        -0.00056476
  57         0.00083481
  58        -0.00000000
  59        -0.00001317
  60         0.00003008
  61        -0.00000000
  62        -0.00024709
  63        -0.00000000
  64         0.00000000
  65        -0.00004912
  66        -0.00011579
  67         0.28916340
  68         0.00267523
  69        -0.00388920
  70         0.00003876
  71        -0.00008597
  72        -0.00003223
  73         0.00000000
  74         0.00083481
  75        -0.00056477
  76         0.00000000
  77         0.00003008
  78        -0.00001317
  79        -0.00000000
  80        -0.00024709
  81        -0.00000000
  82        -0.00000000
  83         0.00004912
  84        -0.00011579
  85        -0.57830963
  86        -0.00535033
  87         0.00777828
  88        -0.00007752
  89         0.00001255
  90         0.00001255
  91         0.00000000
  92         0.00107705
  93         0.00107705
  94        -0.00000000
  95         0.00002900
  96         0.00002900
  97         0.00000000
  98         0.00049418
  99        -0.00000000
 100         0.00000000
 101        -0.00000000
 102        -0.00003071
 103         0.28915955
 104         0.00267520
 105        -0.00388915
 106         0.00003876
 107         0.00003223
 108         0.00008597
 109        -0.00000000
 110         0.00056476
 111        -0.00083481
 112        -0.00000000
 113         0.00001317
 114        -0.00003008
 115         0.00000000
 116        -0.00024709
 117         0.00000000
 118        -0.00000000
 119        -0.00004912
 120        -0.00011579
 121         0.28916340
 122         0.00267523
 123        -0.00388920
 124         0.00003876
 125         0.00008597
 126         0.00003223
 127         0.00000000
 128        -0.00083481
 129         0.00056477
 130        -0.00000000
 131        -0.00003008
 132         0.00001317
 133         0.00000000
 134        -0.00024709
 135        -0.00000000
 136        -0.00000000
 137         0.00004912
 138        -0.00011579
Sym=     5a  
Ene=   -11.2420
Spin= Alpha
Occup=    2.00000
   1        -0.00000000
   2         0.00000000
   3         0.00000965
   4        -0.00000965
   5        -0.00000000
   6         0.00046820
   7        -0.00044881
   8         0.00031103
   9        -0.00009040
  10         0.00000000
  11        -0.00046819
  12         0.00044881
  13         0.00009040
  14        -0.00031102
  15        -0.00000000
  16        -0.00000000
  17         0.00000000
  18        -0.00000965
  19         0.00000965
  20         0.00000000
  21         0.00046820
  22        -0.00044881
  23        -0.00031103
  24         0.00009040
  25         0.00000000
  26        -0.00046819
  27         0.00044881
  28        -0.00009040
  29         0.00031102
  30        -0.00000000
  31         0.00000222
  32         0.00000002
  33        -0.00000003
  34         0.00000000
  35         0.00007461
  36        -0.00007461
  37        -0.00000000
  38        -0.00053904
  39         0.00053905
  40         0.00000000
  41        -0.00002094
  42         0.00002094
  43         0.00000000
  44        -0.00000000
  45         0.00000000
  46        -0.00000000
  47        -0.00014415
  48         0.00000000
  49        -0.50083578
  50        -0.00463356
  51         0.00673622
  52        -0.00006713
  53         0.00000120
  54        -0.00005494
  55        -0.00000000
  56         0.00137281
  57         0.00002676
  58         0.00000000
  59         0.00003814
  60         0.00000511
  61         0.00000000
  62         0.00042798
  63         0.00000000
  64        -0.00000000
  65        -0.00005907
  66        -0.00004912
  67         0.50083356
  68         0.00463354
  69        -0.00673619
  70         0.00006713
  71         0.00005494
  72        -0.00000120
  73         0.00000000
  74        -0.00002677
  75        -0.00137281
  76         0.00000000
  77        -0.00000511
  78        -0.00003814
  79        -0.00000000
  80        -0.00042798
  81         0.00000000
  82         0.00000000
  83        -0.00005907
  84         0.00004912
  85         0.00000222
  86         0.00000002
  87        -0.00000003
  88         0.00000000
  89        -0.00007461
  90         0.00007461
  91        -0.00000000
  92         0.00053904
  93        -0.00053905
  94        -0.00000000
  95         0.00002094
  96        -0.00002094
  97         0.00000000
  98        -0.00000000
  99         0.00000000
 100        -0.00000000
 101        -0.00014415
 102         0.00000000
 103        -0.50083578
 104        -0.00463356
 105         0.00673622
 106        -0.00006713
 107        -0.00000120
 108         0.00005494
 109        -0.00000000
 110        -0.00137281
 111        -0.00002676
 112        -0.00000000
 113        -0.00003814
 114        -0.00000511
 115        -0.00000000
 116         0.00042798
 117         0.00000000
 118         0.00000000
 119        -0.00005907
 120        -0.00004912
 121         0.50083356
 122         0.00463354
 123        -0.00673619
 124         0.00006713
 125        -0.00005494
 126         0.00000120
 127         0.00000000
 128         0.00002677
 129         0.00137281
 130        -0.00000000
 131         0.00000511
 132         0.00003814
 133         0.00000000
 134        -0.00042798
 135         0.00000000
 136        -0.00000000
 137        -0.00005907
 138         0.00004912
Sym=     6a  
Ene=   -11.2420
Spin= Alpha
Occup=    2.00000
   1         0.00058397
   2        -0.00008282
   3        -0.00021880
   4        -0.00021880
   5        -0.00000000
   6         0.00058397
   7        -0.00008283
   8         0.00029889
   9        -0.00008009
  10         0.00000000
  11         0.00058397
  12        -0.00008283
  13        -0.00008009
  14         0.00029889
  15         0.00000000
  16        -0.00058397
  17         0.00008282
  18        -0.00021880
  19        -0.00021880
  20         0.00000000
  21        -0.00058397
  22         0.00008283
  23         0.00029889
  24        -0.00008009
  25        -0.00000000
  26        -0.00058397
  27         0.00008283
  28        -0.00008009
  29         0.00029889
  30        -0.00000000
  31        -0.40911263
  32        -0.00421792
  33         0.00897526
  34        -0.00002973
  35         0.00001440
  36         0.00001440
  37        -0.00000000
  38        -0.00198960
  39        -0.00198960
  40         0.00000000
  41        -0.00002598
  42        -0.00002598
  43         0.00000000
  44         0.00053902
  45        -0.00000000
  46        -0.00000000
  47        -0.00000000
  48        -0.00006857
  49        -0.40912193
  50        -0.00421799
  51         0.00897535
  52        -0.00002973
  53        -0.00001967
  54         0.00000527
  55        -0.00000000
  56         0.00271785
  57        -0.00072823
  58        -0.00000000
  59         0.00003549
  60        -0.00000951
  61         0.00000000
  62         0.00053902
  63        -0.00000000
  64        -0.00000000
  65        -0.00005938
  66         0.00003428
  67        -0.40912193
  68        -0.00421799
  69         0.00897535
  70        -0.00002973
  71         0.00000527
  72        -0.00001967
  73         0.00000000
  74        -0.00072823
  75         0.00271785
  76        -0.00000000
  77        -0.00000951
  78         0.00003549
  79         0.00000000
  80         0.00053902
  81         0.00000000
  82         0.00000000
  83         0.00005938
  84         0.00003428
  85         0.40911263
  86         0.00421792
  87        -0.00897526
  88         0.00002973
  89         0.00001440
  90         0.00001440
  91        -0.00000000
  92        -0.00198960
  93        -0.00198960
  94         0.00000000
  95        -0.00002598
  96        -0.00002598
  97         0.00000000
  98        -0.00053902
  99        -0.00000000
 100        -0.00000000
 101        -0.00000000
 102         0.00006857
 103         0.40912193
 104         0.00421799
 105        -0.00897535
 106         0.00002973
 107        -0.00001967
 108         0.00000527
 109        -0.00000000
 110         0.00271785
 111        -0.00072823
 112         0.00000000
 113         0.00003549
 114        -0.00000951
 115         0.00000000
 116        -0.00053902
 117         0.00000000
 118         0.00000000
 119         0.00005938
 120        -0.00003428
 121         0.40912193
 122         0.00421799
 123        -0.00897535
 124         0.00002973
 125         0.00000527
 126        -0.00001967
 127         0.00000000
 128        -0.00072823
 129         0.00271785
 130        -0.00000000
 131        -0.00000951
 132         0.00003549
 133         0.00000000
 134        -0.00053902
 135         0.00000000
 136        -0.00000000
 137        -0.00005938
 138        -0.00003428
Sym=     7a  
Ene=    -1.1433
Spin= Alpha
Occup=    2.00000
   1         0.07957630
   2        -0.03989973
   3        -0.00583175
   4        -0.00583175
   5        -0.00000000
   6         0.07957635
   7        -0.03989976
   8         0.00796632
   9        -0.00213457
  10        -0.00000000
  11         0.07957635
  12        -0.03989976
  13        -0.00213457
  14         0.00796632
  15         0.00000000
  16         0.07957630
  17        -0.03989973
  18         0.00583175
  19         0.00583175
  20         0.00000000
  21         0.07957635
  22        -0.03989976
  23        -0.00796632
  24         0.00213457
  25         0.00000000
  26         0.07957635
  27        -0.03989976
  28         0.00213457
  29        -0.00796632
  30        -0.00000000
  31        -0.00950347
  32         0.36003243
  33        -0.10668120
  34        -0.00245594