[Molden Format]
[N_Atoms]
 12
[Atoms] (AU)
H1          1      1           3.33627831      3.33627831      0.00000000
H2          2      1          -4.55744020      1.22116258      0.00000000
H3          3      1           1.22116258     -4.55744020      0.00000000
H4          4      1          -3.33627831     -3.33627831      0.00000000
H5          5      1           4.55744020     -1.22116258      0.00000000
H6          6      1          -1.22116258      4.55744020      0.00000000
C1          7      6           1.87493210      1.87493210      0.00000000
C2          8      6          -2.56120453      0.68627263      0.00000000
C3          9      6           0.68627263     -2.56120453      0.00000000
C4         10      6          -1.87493210     -1.87493210      0.00000000
C5         11      6           2.56120453     -0.68627263      0.00000000
C6         12      6          -0.68627263      2.56120453      0.00000000
[5D]
[Charge] (Mulliken)
 3.036553889298454E-002
 3.036544543989461E-002
 3.036544544085196E-002
 3.036553889440530E-002
 3.036544543948227E-002
 3.036544543981989E-002
 -3.036559180903886E-002
 -3.036541897991363E-002
 -3.036541898088974E-002
 -3.036559181387233E-002
 -3.036541898188361E-002
 -3.036541898191114E-002
[GTO] (AU)
   1
   s   4
  1.301000000E+01  1.968498999E-02
  1.962000000E+00  1.379769298E-01
  4.446000000E-01  4.781477569E-01
  1.220000000E-01  5.012397451E-01
   s   1
  1.220000000E-01  1.000000000E+00
   p   1
  7.270000000E-01  1.000000000E+00
 
   2
   s   4
  1.301000000E+01  1.968498999E-02
  1.962000000E+00  1.379769298E-01
  4.446000000E-01  4.781477569E-01
  1.220000000E-01  5.012397451E-01
   s   1
  1.220000000E-01  1.000000000E+00
   p   1
  7.270000000E-01  1.000000000E+00
 
   3
   s   4
  1.301000000E+01  1.968498999E-02
  1.962000000E+00  1.379769298E-01
  4.446000000E-01  4.781477569E-01
  1.220000000E-01  5.012397451E-01
   s   1
  1.220000000E-01  1.000000000E+00
   p   1
  7.270000000E-01  1.000000000E+00
 
   4
   s   4
  1.301000000E+01  1.968498999E-02
  1.962000000E+00  1.379769298E-01
  4.446000000E-01  4.781477569E-01
  1.220000000E-01  5.012397451E-01
   s   1
  1.220000000E-01  1.000000000E+00
   p   1
  7.270000000E-01  1.000000000E+00
 
   5
   s   4
  1.301000000E+01  1.968498999E-02
  1.962000000E+00  1.379769298E-01
  4.446000000E-01  4.781477569E-01
  1.220000000E-01  5.012397451E-01
   s   1
  1.220000000E-01  1.000000000E+00
   p   1
  7.270000000E-01  1.000000000E+00
 
   6
   s   4
  1.301000000E+01  1.968498999E-02
  1.962000000E+00  1.379769298E-01
  4.446000000E-01  4.781477569E-01
  1.220000000E-01  5.012397451E-01
   s   1
  1.220000000E-01  1.000000000E+00
   p   1
  7.270000000E-01  1.000000000E+00
 
   7
   s   9
  6.665000000E+03  6.920001793E-04
  1.000000000E+03  5.329001381E-03
  2.280000000E+02  2.707700701E-02
  6.471000000E+01  1.017180264E-01
  2.106000000E+01  2.747400712E-01
  7.495000000E+00  4.485641162E-01
  2.797000000E+00  2.850740738E-01
  5.215000000E-01  1.520400394E-02
  1.596000000E-01 -3.191000827E-03
   s   9
  6.665000000E+03 -1.460000642E-04
  1.000000000E+03 -1.154000508E-03
  2.280000000E+02 -5.725002519E-03
  6.471000000E+01 -2.331201026E-02
  2.106000000E+01 -6.395502813E-02
  7.495000000E+00 -1.499810660E-01
  2.797000000E+00 -1.272620560E-01
  5.215000000E-01  5.445292395E-01
  1.596000000E-01  5.804962554E-01
   s   1
  1.596000000E-01  1.000000000E+00
   s   1
  4.530000000E+00  1.000000000E+00
   p   4
  9.439000000E+00  3.810902127E-02
  2.002000000E+00  2.094801169E-01
  5.456000000E-01  5.085572839E-01
  1.517000000E-01  4.688422617E-01
   p   1
  1.517000000E-01  1.000000000E+00
   p   1
  1.455700000E+01  1.000000000E+00
   d   1
  5.500000000E-01  1.000000000E+00
 
   8
   s   9
  6.665000000E+03  6.920001793E-04
  1.000000000E+03  5.329001381E-03
  2.280000000E+02  2.707700701E-02
  6.471000000E+01  1.017180264E-01
  2.106000000E+01  2.747400712E-01
  7.495000000E+00  4.485641162E-01
  2.797000000E+00  2.850740738E-01
  5.215000000E-01  1.520400394E-02
  1.596000000E-01 -3.191000827E-03
   s   9
  6.665000000E+03 -1.460000642E-04
  1.000000000E+03 -1.154000508E-03
  2.280000000E+02 -5.725002519E-03
  6.471000000E+01 -2.331201026E-02
  2.106000000E+01 -6.395502813E-02
  7.495000000E+00 -1.499810660E-01
  2.797000000E+00 -1.272620560E-01
  5.215000000E-01  5.445292395E-01
  1.596000000E-01  5.804962554E-01
   s   1
  1.596000000E-01  1.000000000E+00
   s   1
  4.530000000E+00  1.000000000E+00
   p   4
  9.439000000E+00  3.810902127E-02
  2.002000000E+00  2.094801169E-01
  5.456000000E-01  5.085572839E-01
  1.517000000E-01  4.688422617E-01
   p   1
  1.517000000E-01  1.000000000E+00
   p   1
  1.455700000E+01  1.000000000E+00
   d   1
  5.500000000E-01  1.000000000E+00
 
   9
   s   9
  6.665000000E+03  6.920001793E-04
  1.000000000E+03  5.329001381E-03
  2.280000000E+02  2.707700701E-02
  6.471000000E+01  1.017180264E-01
  2.106000000E+01  2.747400712E-01
  7.495000000E+00  4.485641162E-01
  2.797000000E+00  2.850740738E-01
  5.215000000E-01  1.520400394E-02
  1.596000000E-01 -3.191000827E-03
   s   9
  6.665000000E+03 -1.460000642E-04
  1.000000000E+03 -1.154000508E-03
  2.280000000E+02 -5.725002519E-03
  6.471000000E+01 -2.331201026E-02
  2.106000000E+01 -6.395502813E-02
  7.495000000E+00 -1.499810660E-01
  2.797000000E+00 -1.272620560E-01
  5.215000000E-01  5.445292395E-01
  1.596000000E-01  5.804962554E-01
   s   1
  1.596000000E-01  1.000000000E+00
   s   1
  4.530000000E+00  1.000000000E+00
   p   4
  9.439000000E+00  3.810902127E-02
  2.002000000E+00  2.094801169E-01
  5.456000000E-01  5.085572839E-01
  1.517000000E-01  4.688422617E-01
   p   1
  1.517000000E-01  1.000000000E+00
   p   1
  1.455700000E+01  1.000000000E+00
   d   1
  5.500000000E-01  1.000000000E+00
 
  10
   s   9
  6.665000000E+03  6.920001793E-04
  1.000000000E+03  5.329001381E-03
  2.280000000E+02  2.707700701E-02
  6.471000000E+01  1.017180264E-01
  2.106000000E+01  2.747400712E-01
  7.495000000E+00  4.485641162E-01
  2.797000000E+00  2.850740738E-01
  5.215000000E-01  1.520400394E-02
  1.596000000E-01 -3.191000827E-03
   s   9
  6.665000000E+03 -1.460000642E-04
  1.000000000E+03 -1.154000508E-03
  2.280000000E+02 -5.725002519E-03
  6.471000000E+01 -2.331201026E-02
  2.106000000E+01 -6.395502813E-02
  7.495000000E+00 -1.499810660E-01
  2.797000000E+00 -1.272620560E-01
  5.215000000E-01  5.445292395E-01
  1.596000000E-01  5.804962554E-01
   s   1
  1.596000000E-01  1.000000000E+00
   s   1
  4.530000000E+00  1.000000000E+00
   p   4
  9.439000000E+00  3.810902127E-02
  2.002000000E+00  2.094801169E-01
  5.456000000E-01  5.085572839E-01
  1.517000000E-01  4.688422617E-01
   p   1
  1.517000000E-01  1.000000000E+00
   p   1
  1.455700000E+01  1.000000000E+00
   d   1
  5.500000000E-01  1.000000000E+00
 
  11
   s   9
  6.665000000E+03  6.920001793E-04
  1.000000000E+03  5.329001381E-03
  2.280000000E+02  2.707700701E-02
  6.471000000E+01  1.017180264E-01
  2.106000000E+01  2.747400712E-01
  7.495000000E+00  4.485641162E-01
  2.797000000E+00  2.850740738E-01
  5.215000000E-01  1.520400394E-02
  1.596000000E-01 -3.191000827E-03
   s   9
  6.665000000E+03 -1.460000642E-04
  1.000000000E+03 -1.154000508E-03
  2.280000000E+02 -5.725002519E-03
  6.471000000E+01 -2.331201026E-02
  2.106000000E+01 -6.395502813E-02
  7.495000000E+00 -1.499810660E-01
  2.797000000E+00 -1.272620560E-01
  5.215000000E-01  5.445292395E-01
  1.596000000E-01  5.804962554E-01
   s   1
  1.596000000E-01  1.000000000E+00
   s   1
  4.530000000E+00  1.000000000E+00
   p   4
  9.439000000E+00  3.810902127E-02
  2.002000000E+00  2.094801169E-01
  5.456000000E-01  5.085572839E-01
  1.517000000E-01  4.688422617E-01
   p   1
  1.517000000E-01  1.000000000E+00
   p   1
  1.455700000E+01  1.000000000E+00
   d   1
  5.500000000E-01  1.000000000E+00
 
  12
   s   9
  6.665000000E+03  6.920001793E-04
  1.000000000E+03  5.329001381E-03
  2.280000000E+02  2.707700701E-02
  6.471000000E+01  1.017180264E-01
  2.106000000E+01  2.747400712E-01
  7.495000000E+00  4.485641162E-01
  2.797000000E+00  2.850740738E-01
  5.215000000E-01  1.520400394E-02
  1.596000000E-01 -3.191000827E-03
   s   9
  6.665000000E+03 -1.460000642E-04
  1.000000000E+03 -1.154000508E-03
  2.280000000E+02 -5.725002519E-03
  6.471000000E+01 -2.331201026E-02
  2.106000000E+01 -6.395502813E-02
  7.495000000E+00 -1.499810660E-01
  2.797000000E+00 -1.272620560E-01
  5.215000000E-01  5.445292395E-01
  1.596000000E-01  5.804962554E-01
   s   1
  1.596000000E-01  1.000000000E+00
   s   1
  4.530000000E+00  1.000000000E+00
   p   4
  9.439000000E+00  3.810902127E-02
  2.002000000E+00  2.094801169E-01
  5.456000000E-01  5.085572839E-01
  1.517000000E-01  4.688422617E-01
   p   1
  1.517000000E-01  1.000000000E+00
   p   1
  1.455700000E+01  1.000000000E+00
   d   1
  5.500000000E-01  1.000000000E+00
 
[MO]
Sym=     1a  
Ene=     0.0000
Spin= Alpha
Occup=    1.99879
   1         0.00052991
   2         0.00050277
   3         0.00007355
   4         0.00007355
   5         0.00000000
   6         0.00052991
   7         0.00050277
   8        -0.00010047
   9         0.00002692
  10         0.00000000
  11         0.00052991
  12         0.00050277
  13         0.00002692
  14        -0.00010047
  15         0.00000000
  16         0.00052991
  17         0.00050277
  18        -0.00007355
  19        -0.00007355
  20         0.00000000
  21         0.00052991
  22         0.00050277
  23         0.00010047
  24        -0.00002692
  25         0.00000000
  26         0.00052991
  27         0.00050277
  28        -0.00002692
  29         0.00010047
  30        -0.00000000
  31         0.40839656
  32         0.00730442
  33        -0.00397901
  34         0.00020604
  35        -0.00041520
  36        -0.00041520
  37         0.00000000
  38        -0.00003773
  39        -0.00003773
  40        -0.00000000
  41        -0.00000213
  42        -0.00000213
  43        -0.00000000
  44        -0.00013265
  45        -0.00000000
  46         0.00000000
  47        -0.00000000
  48         0.00009857
  49         0.40839603
  50         0.00730442
  51        -0.00397900
  52         0.00020604
  53         0.00056717
  54        -0.00015197
  55        -0.00000000
  56         0.00005154
  57        -0.00001381
  58         0.00000000
  59         0.00000291
  60        -0.00000078
  61         0.00000000
  62        -0.00013265
  63         0.00000000
  64        -0.00000000
  65         0.00008536
  66        -0.00004928
  67         0.40839603
  68         0.00730442
  69        -0.00397900
  70         0.00020604
  71        -0.00015197
  72         0.00056717
  73        -0.00000000
  74        -0.00001381
  75         0.00005154
  76         0.00000000
  77        -0.00000078
  78         0.00000291
  79         0.00000000
  80        -0.00013265
  81        -0.00000000
  82         0.00000000
  83        -0.00008536
  84        -0.00004928
  85         0.40839656
  86         0.00730442
  87        -0.00397901
  88         0.00020604
  89         0.00041520
  90         0.00041520
  91        -0.00000000
  92         0.00003773
  93         0.00003773
  94         0.00000000
  95         0.00000213
  96         0.00000213
  97         0.00000000
  98        -0.00013265
  99        -0.00000000
 100         0.00000000
 101        -0.00000000
 102         0.00009857
 103         0.40839603
 104         0.00730442
 105        -0.00397900
 106         0.00020604
 107        -0.00056717
 108         0.00015197
 109        -0.00000000
 110        -0.00005154
 111         0.00001381
 112        -0.00000000
 113        -0.00000291
 114         0.00000078
 115        -0.00000000
 116        -0.00013265
 117         0.00000000
 118        -0.00000000
 119         0.00008536
 120        -0.00004928
 121         0.40839603
 122         0.00730442
 123        -0.00397900
 124         0.00020604
 125         0.00015197
 126        -0.00056717
 127        -0.00000000
 128         0.00001381
 129        -0.00005154
 130        -0.00000000
 131         0.00000078
 132        -0.00000291
 133         0.00000000
 134        -0.00013265
 135        -0.00000000
 136         0.00000000
 137        -0.00008536
 138        -0.00004928
Sym=     2a  
Ene=     0.0000
Spin= Alpha
Occup=    1.99878
   1         0.00049794
   2         0.00043924
   3         0.00016127
   4         0.00016127
   5        -0.00000000
   6        -0.00024899
   7        -0.00021963
   8         0.00010301
   9        -0.00005617
  10         0.00000000
  11        -0.00024896
  12        -0.00021961
  13        -0.00005617
  14         0.00010300
  15        -0.00000000
  16        -0.00049794
  17        -0.00043924
  18         0.00016127
  19         0.00016127
  20        -0.00000000
  21         0.00024899
  22         0.00021963
  23         0.00010301
  24        -0.00005617
  25        -0.00000000
  26         0.00024896
  27         0.00021961
  28        -0.00005617
  29         0.00010300
  30         0.00000000
  31         0.57803807
  32         0.00892372
  33        -0.00779189
  34         0.00031381
  35        -0.00005706
  36        -0.00005708
  37         0.00000000
  38         0.00033411
  39         0.00033403
  40        -0.00000000
  41         0.00001021
  42         0.00001021
  43        -0.00000000
  44        -0.00008392
  45        -0.00000000
  46         0.00000000
  47         0.00000000
  48         0.00008212
  49        -0.28903490
  50        -0.00446210
  51         0.00389615
  52        -0.00015691
  53         0.00006891
  54         0.00041311
  55        -0.00000000
  56         0.00060130
  57         0.00133136
  58        -0.00000000
  59         0.00001424
  60         0.00002525
  61         0.00000000
  62         0.00004196
  63         0.00000000
  64         0.00000000
  65        -0.00006067
  66        -0.00002295
  67        -0.28900224
  68        -0.00446160
  69         0.00389571
  70        -0.00015689
  71         0.00041312
  72         0.00006892
  73         0.00000000
  74         0.00133142
  75         0.00060129
  76        -0.00000000
  77         0.00002525
  78         0.00001424
  79         0.00000000
  80         0.00004196
  81        -0.00000000
  82         0.00000000
  83         0.00006067
  84        -0.00002296
  85        -0.57803807
  86        -0.00892372
  87         0.00779189
  88        -0.00031381
  89        -0.00005706
  90        -0.00005708
  91         0.00000000
  92         0.00033411
  93         0.00033403
  94         0.00000000
  95         0.00001021
  96         0.00001021
  97        -0.00000000
  98         0.00008392
  99        -0.00000000
 100         0.00000000
 101        -0.00000000
 102        -0.00008212
 103         0.28903490
 104         0.00446210
 105        -0.00389615
 106         0.00015691
 107         0.00006891
 108         0.00041311
 109        -0.00000000
 110         0.00060130
 111         0.00133136
 112         0.00000000
 113         0.00001424
 114         0.00002525
 115         0.00000000
 116        -0.00004196
 117        -0.00000000
 118         0.00000000
 119         0.00006067
 120         0.00002295
 121         0.28900224
 122         0.00446160
 123        -0.00389571
 124         0.00015689
 125         0.00041312
 126         0.00006892
 127        -0.00000000
 128         0.00133142
 129         0.00060129
 130         0.00000000
 131         0.00002525
 132         0.00001424
 133         0.00000000
 134        -0.00004196
 135        -0.00000000
 136        -0.00000000
 137        -0.00006067
 138         0.00002296
Sym=     3a  
Ene=     0.0000
Spin= Alpha
Occup=    1.99878
   1        -0.00000002
   2        -0.00000001
   3        -0.00002254
   4         0.00002253
   5         0.00000000
   6        -0.00043122
   7        -0.00038039
   8         0.00019490
   9        -0.00003573
  10         0.00000000
  11         0.00043124
  12         0.00038040
  13         0.00003573
  14        -0.00019491
  15        -0.00000000
  16         0.00000002
  17         0.00000001
  18        -0.00002254
  19         0.00002253
  20        -0.00000000
  21         0.00043122
  22         0.00038039
  23         0.00019490
  24        -0.00003573
  25         0.00000000
  26        -0.00043124
  27        -0.00038040
  28         0.00003573
  29        -0.00019491
  30         0.00000000
  31        -0.00001886
  32        -0.00000029
  33         0.00000025
  34        -0.00000001
  35         0.00034038
  36        -0.00034038
  37         0.00000000
  38         0.00117709
  39        -0.00117711
  40        -0.00000000
  41         0.00002292
  42        -0.00002292
  43        -0.00000000
  44         0.00000000
  45        -0.00000000
  46         0.00000000
  47         0.00005798
  48        -0.00000000
  49        -0.50058596
  50        -0.00772802
  51         0.00674784
  52        -0.00027176
  53        -0.00012981
  54        -0.00021441
  55         0.00000000
  56         0.00017976
  57        -0.00090991
  58        -0.00000000
  59         0.00000788
  60        -0.00001889
  61         0.00000000
  62         0.00007268
  63         0.00000000
  64        -0.00000000
  65        -0.00004710
  66         0.00006067
  67         0.50060481
  68         0.00772831
  69        -0.00674809
  70         0.00027177
  71         0.00021438
  72         0.00012980
  73         0.00000000
  74         0.00090983
  75        -0.00017980
  76         0.00000000
  77         0.00001889
  78        -0.00000788
  79        -0.00000000
  80        -0.00007268
  81         0.00000000
  82         0.00000000
  83        -0.00004710
  84        -0.00006067
  85         0.00001886
  86         0.00000029
  87        -0.00000025
  88         0.00000001
  89         0.00034038
  90        -0.00034038
  91         0.00000000
  92         0.00117709
  93        -0.00117711
  94        -0.00000000
  95         0.00002292
  96        -0.00002292
  97        -0.00000000
  98        -0.00000000
  99         0.00000000
 100        -0.00000000
 101        -0.00005798
 102         0.00000000
 103         0.50058596
 104         0.00772802
 105        -0.00674784
 106         0.00027176
 107        -0.00012981
 108        -0.00021441
 109         0.00000000
 110         0.00017976
 111        -0.00090991
 112         0.00000000
 113         0.00000788
 114        -0.00001889
 115         0.00000000
 116        -0.00007268
 117        -0.00000000
 118         0.00000000
 119         0.00004710
 120        -0.00006067
 121        -0.50060482
 122        -0.00772831
 123         0.00674809
 124        -0.00027177
 125         0.00021438
 126         0.00012980
 127        -0.00000000
 128         0.00090983
 129        -0.00017980
 130         0.00000000
 131         0.00001889
 132        -0.00000788
 133         0.00000000
 134         0.00007268
 135        -0.00000000
 136        -0.00000000
 137         0.00004710
 138         0.00006067
Sym=     4a  
Ene=     0.0000
Spin= Alpha
Occup=    1.99878
   1         0.00098716
   2        -0.00064116
   3        -0.00031783
   4        -0.00031783
   5        -0.00000000
   6        -0.00049357
   7         0.00032058
   8        -0.00022265
   9         0.00003739
  10         0.00000000
  11        -0.00049358
  12         0.00032058
  13         0.00003739
  14        -0.00022265
  15        -0.00000000
  16         0.00098716
  17        -0.00064116
  18         0.00031783
  19         0.00031783
  20        -0.00000000
  21        -0.00049357
  22         0.00032058
  23         0.00022265
  24        -0.00003739
  25         0.00000000
  26        -0.00049358
  27         0.00032058
  28        -0.00003739
  29         0.00022265
  30         0.00000000
  31        -0.57846809
  32        -0.00701402
  33         0.00958827
  34        -0.00025010
  35         0.00018822
  36         0.00018822
  37        -0.00000000
  38        -0.00133419
  39        -0.00133418
  40         0.00000000
  41        -0.00002270
  42        -0.00002270
  43        -0.00000000
  44         0.00052015
  45        -0.00000000
  46         0.00000000
  47        -0.00000000
  48        -0.00001801
  49         0.28923253
  50         0.00350700
  51        -0.00479411
  52         0.00012505
  53         0.00006450
  54        -0.00027352
  55         0.00000000
  56        -0.00070551
  57         0.00101202
  58        -0.00000000
  59        -0.00000834
  60         0.00003090
  61        -0.00000000
  62        -0.00026007
  63        -0.00000000
  64         0.00000000
  65        -0.00008573
  66        -0.00016650
  67         0.28923631
  68         0.00350704
  69        -0.00479417
  70         0.00012505
  71        -0.00027352
  72         0.00006450
  73         0.00000000
  74         0.00101202
  75        -0.00070553
  76         0.00000000
  77         0.00003090
  78        -0.00000834
  79        -0.00000000
  80        -0.00026008
  81        -0.00000000
  82        -0.00000000
  83         0.00008573
  84        -0.00016650
  85        -0.57846809
  86        -0.00701402
  87         0.00958827
  88        -0.00025010
  89        -0.00018822
  90        -0.00018822
  91         0.00000000
  92         0.00133419
  93         0.00133418
  94        -0.00000000
  95         0.00002270
  96         0.00002270
  97         0.00000000
  98         0.00052015
  99        -0.00000000
 100         0.00000000
 101        -0.00000000
 102        -0.00001801
 103         0.28923253
 104         0.00350700
 105        -0.00479411
 106         0.00012505
 107        -0.00006450
 108         0.00027352
 109        -0.00000000
 110         0.00070551
 111        -0.00101202
 112        -0.00000000
 113         0.00000834
 114        -0.00003090
 115         0.00000000
 116        -0.00026007
 117         0.00000000
 118        -0.00000000
 119        -0.00008573
 120        -0.00016650
 121         0.28923631
 122         0.00350704
 123        -0.00479417
 124         0.00012505
 125         0.00027352
 126        -0.00006450
 127         0.00000000
 128        -0.00101202
 129         0.00070553
 130        -0.00000000
 131        -0.00003090
 132         0.00000834
 133         0.00000000
 134        -0.00026008
 135        -0.00000000
 136        -0.00000000
 137         0.00008573
 138        -0.00016650
Sym=     5a  
Ene=     0.0000
Spin= Alpha
Occup=    1.99878
   1        -0.00000000
   2         0.00000000
   3         0.00001756
   4        -0.00001756
   5        -0.00000000
   6         0.00085490
   7        -0.00055526
   8         0.00037278
   9        -0.00011274
  10         0.00000000
  11        -0.00085490
  12         0.00055526
  13         0.00011274
  14        -0.00037278
  15        -0.00000000
  16        -0.00000000
  17         0.00000000
  18        -0.00001756
  19         0.00001756
  20         0.00000000
  21         0.00085490
  22        -0.00055526
  23        -0.00037278
  24         0.00011274
  25         0.00000000
  26        -0.00085490
  27         0.00055526
  28        -0.00011274
  29         0.00037278
  30        -0.00000000
  31         0.00000218
  32         0.00000003
  33        -0.00000004
  34         0.00000000
  35         0.00020209
  36        -0.00020209
  37         0.00000000
  38        -0.00064906
  39         0.00064907
  40        -0.00000000
  41        -0.00002261
  42         0.00002261
  43         0.00000000
  44        -0.00000000
  45         0.00000000
  46        -0.00000000
  47        -0.00021600
  48         0.00000000
  49        -0.50096937
  50        -0.00607434
  51         0.00830370
  52        -0.00021659
  53        -0.00025965
  54        -0.00007836
  55        -0.00000000
  56         0.00169715
  57         0.00002040
  58         0.00000000
  59         0.00003099
  60         0.00000825
  61         0.00000000
  62         0.00045046
  63         0.00000000
  64        -0.00000000
  65        -0.00006751
  66        -0.00008573
  67         0.50096719
  68         0.00607431
  69        -0.00830367
  70         0.00021659
  71         0.00007837
  72         0.00025965
  73         0.00000000
  74        -0.00002040
  75        -0.00169714
  76         0.00000000
  77        -0.00000825
  78        -0.00003099
  79         0.00000000
  80        -0.00045046
  81         0.00000000
  82        -0.00000000
  83        -0.00006751
  84         0.00008573
  85         0.00000218
  86         0.00000003
  87        -0.00000004
  88         0.00000000
  89        -0.00020209
  90         0.00020209
  91         0.00000000
  92         0.00064906
  93        -0.00064907
  94        -0.00000000
  95         0.00002261
  96        -0.00002261
  97         0.00000000
  98        -0.00000000
  99         0.00000000
 100        -0.00000000
 101        -0.00021600
 102         0.00000000
 103        -0.50096937
 104        -0.00607434
 105         0.00830370
 106        -0.00021659
 107         0.00025965
 108         0.00007836
 109         0.00000000
 110        -0.00169715
 111        -0.00002040
 112         0.00000000
 113        -0.00003099
 114        -0.00000825
 115        -0.00000000
 116         0.00045046
 117        -0.00000000
 118         0.00000000
 119        -0.00006751
 120        -0.00008573
 121         0.50096719
 122         0.00607431
 123        -0.00830367
 124         0.00021659
 125        -0.00007837
 126        -0.00025965
 127         0.00000000
 128         0.00002040
 129         0.00169714
 130         0.00000000
 131         0.00000825
 132         0.00003099
 133         0.00000000
 134        -0.00045046
 135         0.00000000
 136        -0.00000000
 137        -0.00006751
 138         0.00008573
Sym=     6a  
Ene=     0.0000
Spin= Alpha
Occup=    1.99878
   1         0.00132629
   2        -0.00023238
   3        -0.00026333
   4        -0.00026333
   5        -0.00000000
   6         0.00132629
   7        -0.00023238
   8         0.00035971
   9        -0.00009638
  10         0.00000000
  11         0.00132629
  12        -0.00023238
  13        -0.00009638
  14         0.00035971
  15         0.00000000
  16        -0.00132629
  17         0.00023238
  18        -0.00026333
  19        -0.00026333
  20         0.00000000
  21        -0.00132629
  22         0.00023238
  23         0.00035971
  24        -0.00009638
  25        -0.00000000
  26        -0.00132629
  27         0.00023238
  28        -0.00009638
  29         0.00035971
  30        -0.00000000
  31        -0.40924332
  32        -0.00514184
  33         0.01070031
  34        -0.00015080
  35         0.00036951
  36         0.00036951
  37        -0.00000000
  38        -0.00239928
  39        -0.00239928
  40         0.00000000
  41        -0.00002139
  42        -0.00002139
  43         0.00000000
  44         0.00059410
  45        -0.00000000
  46        -0.00000000
  47        -0.00000000
  48         0.00002745
  49        -0.40924397
  50        -0.00514185
  51         0.01070032
  52        -0.00015080
  53        -0.00050475
  54         0.00013525
  55        -0.00000000
  56         0.00327748
  57        -0.00087820
  58         0.00000000
  59         0.00002921
  60        -0.00000783
  61         0.00000000
  62         0.00059410
  63        -0.00000000
  64        -0.00000000
  65         0.00002377
  66        -0.00001373
  67        -0.40924397
  68        -0.00514185
  69         0.01070032
  70        -0.00015080
  71         0.00013525
  72        -0.00050475
  73         0.00000000
  74        -0.00087820
  75         0.00327748
  76        -0.00000000
  77        -0.00000783
  78         0.00002921
  79         0.00000000
  80         0.00059410
  81         0.00000000
  82         0.00000000
  83        -0.00002377
  84        -0.00001373
  85         0.40924332
  86         0.00514184
  87        -0.01070031
  88         0.00015080
  89         0.00036951
  90         0.00036951
  91        -0.00000000
  92        -0.00239928
  93        -0.00239928
  94         0.00000000
  95        -0.00002139
  96        -0.00002139
  97         0.00000000
  98        -0.00059410
  99        -0.00000000
 100        -0.00000000
 101         0.00000000
 102        -0.00002745
 103         0.40924397
 104         0.00514185
 105        -0.01070032
 106         0.00015080
 107        -0.00050475
 108         0.00013525
 109        -0.00000000
 110         0.00327748
 111        -0.00087820
 112         0.00000000
 113         0.00002921
 114        -0.00000783
 115         0.00000000
 116        -0.00059410
 117         0.00000000
 118         0.00000000
 119        -0.00002377
 120         0.00001373
 121         0.40924397
 122         0.00514185
 123        -0.01070032
 124         0.00015080
 125         0.00013525
 126        -0.00050475
 127         0.00000000
 128        -0.00087820
 129         0.00327748
 130         0.00000000
 131        -0.00000783
 132         0.00002921
 133         0.00000000
 134        -0.00059410
 135        -0.00000000
 136        -0.00000000
 137         0.00002377
 138         0.00001373
Sym=     7a  
Ene=     0.0000
Spin= Alpha
Occup=    1.98468
   1         0.11875058
   2        -0.05135257
   3        -0.00672038
   4        -0.00672038
   5        -0.00000000
   6         0.11875065
   7        -0.05135260
   8         0.00918021
   9        -0.00245983
  10        -0.00000000
  11         0.11875065
  12        -0.05135260
  13        -0.00245983
  14         0.00918021
  15         0.00000000
  16         0.11875058
  17        -0.05135257
  18         0.00672038
  19         0.00672038
  20         0.00000000
  21         0.11875065
  22        -0.05135260
  23        -0.00918021
  24         0.00245983
  25         0.00000000
  26         0.11875065
  27        -0.05135260
  28         0.00245983
  29        -0.00918021
  30        -0.00000000
  31        -0.01436746
  32         0.35817473
  33        -0.10318140
  34        -0.00209014