[Molden Format]
[N_Atoms]
 12
[Atoms] (AU)
H1          1      1           3.33627831      3.33627831      0.00000000
H2          2      1          -4.55744020      1.22116258      0.00000000
H3          3      1           1.22116258     -4.55744020      0.00000000
H4          4      1          -3.33627831     -3.33627831      0.00000000
H5          5      1           4.55744020     -1.22116258      0.00000000
H6          6      1          -1.22116258      4.55744020      0.00000000
C1          7      6           1.87493210      1.87493210      0.00000000
C2          8      6          -2.56120453      0.68627263      0.00000000
C3          9      6           0.68627263     -2.56120453      0.00000000
C4         10      6          -1.87493210     -1.87493210      0.00000000
C5         11      6           2.56120453     -0.68627263      0.00000000
C6         12      6          -0.68627263      2.56120453      0.00000000
[5D]
[Charge] (Mulliken)
 0.00000000000000
 0.00000000000000
 0.00000000000000
 0.00000000000000
 0.00000000000000
 0.00000000000000
 0.00000000000000
 0.00000000000000
 0.00000000000000
 0.00000000000000
 0.00000000000000
 0.00000000000000
[GTO] (AU)
   1
   s   4
  1.301000000E+01  1.968498999E-02
  1.962000000E+00  1.379769298E-01
  4.446000000E-01  4.781477569E-01
  1.220000000E-01  5.012397451E-01
   s   1
  1.220000000E-01  1.000000000E+00
   p   1
  7.270000000E-01  1.000000000E+00
 
   2
   s   4
  1.301000000E+01  1.968498999E-02
  1.962000000E+00  1.379769298E-01
  4.446000000E-01  4.781477569E-01
  1.220000000E-01  5.012397451E-01
   s   1
  1.220000000E-01  1.000000000E+00
   p   1
  7.270000000E-01  1.000000000E+00
 
   3
   s   4
  1.301000000E+01  1.968498999E-02
  1.962000000E+00  1.379769298E-01
  4.446000000E-01  4.781477569E-01
  1.220000000E-01  5.012397451E-01
   s   1
  1.220000000E-01  1.000000000E+00
   p   1
  7.270000000E-01  1.000000000E+00
 
   4
   s   4
  1.301000000E+01  1.968498999E-02
  1.962000000E+00  1.379769298E-01
  4.446000000E-01  4.781477569E-01
  1.220000000E-01  5.012397451E-01
   s   1
  1.220000000E-01  1.000000000E+00
   p   1
  7.270000000E-01  1.000000000E+00
 
   5
   s   4
  1.301000000E+01  1.968498999E-02
  1.962000000E+00  1.379769298E-01
  4.446000000E-01  4.781477569E-01
  1.220000000E-01  5.012397451E-01
   s   1
  1.220000000E-01  1.000000000E+00
   p   1
  7.270000000E-01  1.000000000E+00
 
   6
   s   4
  1.301000000E+01  1.968498999E-02
  1.962000000E+00  1.379769298E-01
  4.446000000E-01  4.781477569E-01
  1.220000000E-01  5.012397451E-01
   s   1
  1.220000000E-01  1.000000000E+00
   p   1
  7.270000000E-01  1.000000000E+00
 
   7
   s   9
  6.665000000E+03  6.920001793E-04
  1.000000000E+03  5.329001381E-03
  2.280000000E+02  2.707700701E-02
  6.471000000E+01  1.017180264E-01
  2.106000000E+01  2.747400712E-01
  7.495000000E+00  4.485641162E-01
  2.797000000E+00  2.850740738E-01
  5.215000000E-01  1.520400394E-02
  1.596000000E-01 -3.191000827E-03
   s   9
  6.665000000E+03 -1.460000642E-04
  1.000000000E+03 -1.154000508E-03
  2.280000000E+02 -5.725002519E-03
  6.471000000E+01 -2.331201026E-02
  2.106000000E+01 -6.395502813E-02
  7.495000000E+00 -1.499810660E-01
  2.797000000E+00 -1.272620560E-01
  5.215000000E-01  5.445292395E-01
  1.596000000E-01  5.804962554E-01
   s   1
  1.596000000E-01  1.000000000E+00
   s   1
  4.530000000E+00  1.000000000E+00
   p   4
  9.439000000E+00  3.810902127E-02
  2.002000000E+00  2.094801169E-01
  5.456000000E-01  5.085572839E-01
  1.517000000E-01  4.688422617E-01
   p   1
  1.517000000E-01  1.000000000E+00
   p   1
  1.455700000E+01  1.000000000E+00
   d   1
  5.500000000E-01  1.000000000E+00
 
   8
   s   9
  6.665000000E+03  6.920001793E-04
  1.000000000E+03  5.329001381E-03
  2.280000000E+02  2.707700701E-02
  6.471000000E+01  1.017180264E-01
  2.106000000E+01  2.747400712E-01
  7.495000000E+00  4.485641162E-01
  2.797000000E+00  2.850740738E-01
  5.215000000E-01  1.520400394E-02
  1.596000000E-01 -3.191000827E-03
   s   9
  6.665000000E+03 -1.460000642E-04
  1.000000000E+03 -1.154000508E-03
  2.280000000E+02 -5.725002519E-03
  6.471000000E+01 -2.331201026E-02
  2.106000000E+01 -6.395502813E-02
  7.495000000E+00 -1.499810660E-01
  2.797000000E+00 -1.272620560E-01
  5.215000000E-01  5.445292395E-01
  1.596000000E-01  5.804962554E-01
   s   1
  1.596000000E-01  1.000000000E+00
   s   1
  4.530000000E+00  1.000000000E+00
   p   4
  9.439000000E+00  3.810902127E-02
  2.002000000E+00  2.094801169E-01
  5.456000000E-01  5.085572839E-01
  1.517000000E-01  4.688422617E-01
   p   1
  1.517000000E-01  1.000000000E+00
   p   1
  1.455700000E+01  1.000000000E+00
   d   1
  5.500000000E-01  1.000000000E+00
 
   9
   s   9
  6.665000000E+03  6.920001793E-04
  1.000000000E+03  5.329001381E-03
  2.280000000E+02  2.707700701E-02
  6.471000000E+01  1.017180264E-01
  2.106000000E+01  2.747400712E-01
  7.495000000E+00  4.485641162E-01
  2.797000000E+00  2.850740738E-01
  5.215000000E-01  1.520400394E-02
  1.596000000E-01 -3.191000827E-03
   s   9
  6.665000000E+03 -1.460000642E-04
  1.000000000E+03 -1.154000508E-03
  2.280000000E+02 -5.725002519E-03
  6.471000000E+01 -2.331201026E-02
  2.106000000E+01 -6.395502813E-02
  7.495000000E+00 -1.499810660E-01
  2.797000000E+00 -1.272620560E-01
  5.215000000E-01  5.445292395E-01
  1.596000000E-01  5.804962554E-01
   s   1
  1.596000000E-01  1.000000000E+00
   s   1
  4.530000000E+00  1.000000000E+00
   p   4
  9.439000000E+00  3.810902127E-02
  2.002000000E+00  2.094801169E-01
  5.456000000E-01  5.085572839E-01
  1.517000000E-01  4.688422617E-01
   p   1
  1.517000000E-01  1.000000000E+00
   p   1
  1.455700000E+01  1.000000000E+00
   d   1
  5.500000000E-01  1.000000000E+00
 
  10
   s   9
  6.665000000E+03  6.920001793E-04
  1.000000000E+03  5.329001381E-03
  2.280000000E+02  2.707700701E-02
  6.471000000E+01  1.017180264E-01
  2.106000000E+01  2.747400712E-01
  7.495000000E+00  4.485641162E-01
  2.797000000E+00  2.850740738E-01
  5.215000000E-01  1.520400394E-02
  1.596000000E-01 -3.191000827E-03
   s   9
  6.665000000E+03 -1.460000642E-04
  1.000000000E+03 -1.154000508E-03
  2.280000000E+02 -5.725002519E-03
  6.471000000E+01 -2.331201026E-02
  2.106000000E+01 -6.395502813E-02
  7.495000000E+00 -1.499810660E-01
  2.797000000E+00 -1.272620560E-01
  5.215000000E-01  5.445292395E-01
  1.596000000E-01  5.804962554E-01
   s   1
  1.596000000E-01  1.000000000E+00
   s   1
  4.530000000E+00  1.000000000E+00
   p   4
  9.439000000E+00  3.810902127E-02
  2.002000000E+00  2.094801169E-01
  5.456000000E-01  5.085572839E-01
  1.517000000E-01  4.688422617E-01
   p   1
  1.517000000E-01  1.000000000E+00
   p   1
  1.455700000E+01  1.000000000E+00
   d   1
  5.500000000E-01  1.000000000E+00
 
  11
   s   9
  6.665000000E+03  6.920001793E-04
  1.000000000E+03  5.329001381E-03
  2.280000000E+02  2.707700701E-02
  6.471000000E+01  1.017180264E-01
  2.106000000E+01  2.747400712E-01
  7.495000000E+00  4.485641162E-01
  2.797000000E+00  2.850740738E-01
  5.215000000E-01  1.520400394E-02
  1.596000000E-01 -3.191000827E-03
   s   9
  6.665000000E+03 -1.460000642E-04
  1.000000000E+03 -1.154000508E-03
  2.280000000E+02 -5.725002519E-03
  6.471000000E+01 -2.331201026E-02
  2.106000000E+01 -6.395502813E-02
  7.495000000E+00 -1.499810660E-01
  2.797000000E+00 -1.272620560E-01
  5.215000000E-01  5.445292395E-01
  1.596000000E-01  5.804962554E-01
   s   1
  1.596000000E-01  1.000000000E+00
   s   1
  4.530000000E+00  1.000000000E+00
   p   4
  9.439000000E+00  3.810902127E-02
  2.002000000E+00  2.094801169E-01
  5.456000000E-01  5.085572839E-01
  1.517000000E-01  4.688422617E-01
   p   1
  1.517000000E-01  1.000000000E+00
   p   1
  1.455700000E+01  1.000000000E+00
   d   1
  5.500000000E-01  1.000000000E+00
 
  12
   s   9
  6.665000000E+03  6.920001793E-04
  1.000000000E+03  5.329001381E-03
  2.280000000E+02  2.707700701E-02
  6.471000000E+01  1.017180264E-01
  2.106000000E+01  2.747400712E-01
  7.495000000E+00  4.485641162E-01
  2.797000000E+00  2.850740738E-01
  5.215000000E-01  1.520400394E-02
  1.596000000E-01 -3.191000827E-03
   s   9
  6.665000000E+03 -1.460000642E-04
  1.000000000E+03 -1.154000508E-03
  2.280000000E+02 -5.725002519E-03
  6.471000000E+01 -2.331201026E-02
  2.106000000E+01 -6.395502813E-02
  7.495000000E+00 -1.499810660E-01
  2.797000000E+00 -1.272620560E-01
  5.215000000E-01  5.445292395E-01
  1.596000000E-01  5.804962554E-01
   s   1
  1.596000000E-01  1.000000000E+00
   s   1
  4.530000000E+00  1.000000000E+00
   p   4
  9.439000000E+00  3.810902127E-02
  2.002000000E+00  2.094801169E-01
  5.456000000E-01  5.085572839E-01
  1.517000000E-01  4.688422617E-01
   p   1
  1.517000000E-01  1.000000000E+00
   p   1
  1.455700000E+01  1.000000000E+00
   d   1
  5.500000000E-01  1.000000000E+00
 
[MO]
Sym=     1a  
Ene=   -11.3600
Spin= Alpha
Occup=    2.00000
   1         0.00221290
   2        -0.00032137
   3         0.00000000
   4         0.00000000
   5        -0.00000000
   6         0.00221290
   7        -0.00032137
   8         0.00000000
   9        -0.00000000
  10         0.00000000
  11         0.00221290
  12        -0.00032137
  13         0.00000000
  14         0.00000000
  15         0.00000000
  16         0.00221290
  17        -0.00032137
  18         0.00000000
  19        -0.00000000
  20        -0.00000000
  21         0.00221290
  22        -0.00032137
  23        -0.00000000
  24        -0.00000000
  25        -0.00000000
  26         0.00221290
  27        -0.00032137
  28        -0.00000000
  29        -0.00000000
  30         0.00000000
  31         0.40748539
  32         0.00266380
  33         0.00171701
  34        -0.00060364
  35        -0.00143986
  36        -0.00143986
  37        -0.00000000
  38         0.00011959
  39         0.00011959
  40         0.00000000
  41         0.00000064
  42         0.00000064
  43         0.00000000
  44        -0.00000000
  45        -0.00000000
  46         0.00000000
  47         0.00000000
  48         0.00000000
  49         0.40748548
  50         0.00266380
  51         0.00171701
  52        -0.00060364
  53         0.00196689
  54        -0.00052703
  55         0.00000000
  56        -0.00016337
  57         0.00004377
  58        -0.00000000
  59        -0.00000088
  60         0.00000024
  61         0.00000000
  62        -0.00000000
  63        -0.00000000
  64        -0.00000000
  65        -0.00000000
  66        -0.00000000
  67         0.40748548
  68         0.00266380
  69         0.00171701
  70        -0.00060364
  71        -0.00052703
  72         0.00196689
  73         0.00000000
  74         0.00004377
  75        -0.00016337
  76        -0.00000000
  77         0.00000024
  78        -0.00000088
  79        -0.00000000
  80        -0.00000000
  81         0.00000000
  82        -0.00000000
  83         0.00000000
  84         0.00000000
  85         0.40748539
  86         0.00266380
  87         0.00171701
  88        -0.00060364
  89         0.00143986
  90         0.00143986
  91        -0.00000000
  92        -0.00011959
  93        -0.00011959
  94         0.00000000
  95        -0.00000064
  96        -0.00000064
  97        -0.00000000
  98         0.00000000
  99         0.00000000
 100         0.00000000
 101         0.00000000
 102         0.00000000
 103         0.40748548
 104         0.00266380
 105         0.00171701
 106        -0.00060364
 107        -0.00196689
 108         0.00052703
 109         0.00000000
 110         0.00016337
 111        -0.00004377
 112         0.00000000
 113         0.00000088
 114        -0.00000024
 115         0.00000000
 116         0.00000000
 117        -0.00000000
 118         0.00000000
 119         0.00000000
 120        -0.00000000
 121         0.40748548
 122         0.00266380
 123         0.00171701
 124        -0.00060364
 125         0.00052703
 126        -0.00196689
 127        -0.00000000
 128        -0.00004377
 129         0.00016337
 130         0.00000000
 131        -0.00000024
 132         0.00000088
 133         0.00000000
 134         0.00000000
 135        -0.00000000
 136        -0.00000000
 137        -0.00000000
 138        -0.00000000
Sym=     2a  
Ene=   -11.3470
Spin= Alpha
Occup=    2.00000
   1         0.00000002
   2        -0.00000000
   3        -0.00000000
   4        -0.00000000
   5         0.00000000
   6        -0.00237611
   7         0.00034507
   8         0.00000000
   9        -0.00000000
  10        -0.00000000
  11         0.00237608
  12        -0.00034507
  13        -0.00000000
  14         0.00000000
  15        -0.00000000
  16        -0.00000002
  17         0.00000000
  18        -0.00000000
  19        -0.00000000
  20         0.00000000
  21         0.00237611
  22        -0.00034507
  23         0.00000000
  24        -0.00000000
  25         0.00000000
  26        -0.00237608
  27         0.00034507
  28        -0.00000000
  29         0.00000000
  30         0.00000000
  31         0.00000525
  32         0.00000001
  33         0.00000002
  34        -0.00000001
  35         0.00237497
  36        -0.00237498
  37         0.00000000
  38        -0.00019726
  39         0.00019726
  40        -0.00000000
  41        -0.00000106
  42         0.00000106
  43         0.00000000
  44         0.00000000
  45        -0.00000000
  46        -0.00000000
  47         0.00000000
  48        -0.00000000
  49        -0.49948953
  50        -0.00079240
  51        -0.00230927
  52         0.00074816
  53        -0.00090698
  54        -0.00149555
  55         0.00000000
  56         0.00007533
  57         0.00012422
  58         0.00000000
  59         0.00000041
  60         0.00000067
  61         0.00000000
  62         0.00000000
  63        -0.00000000
  64        -0.00000000
  65         0.00000000
  66        -0.00000000
  67         0.49948428
  68         0.00079239
  69         0.00230925
  70        -0.00074815
  71         0.00149561
  72         0.00090699
  73        -0.00000000
  74        -0.00012422
  75        -0.00007533
  76         0.00000000
  77        -0.00000067
  78        -0.00000041
  79         0.00000000
  80         0.00000000
  81         0.00000000
  82         0.00000000
  83        -0.00000000
  84        -0.00000000
  85        -0.00000525
  86        -0.00000001
  87        -0.00000002
  88         0.00000001
  89         0.00237497
  90        -0.00237498
  91         0.00000000
  92        -0.00019726
  93         0.00019726
  94        -0.00000000
  95        -0.00000106
  96         0.00000106
  97        -0.00000000
  98        -0.00000000
  99         0.00000000
 100        -0.00000000
 101        -0.00000000
 102        -0.00000000
 103         0.49948953
 104         0.00079240
 105         0.00230927
 106        -0.00074816
 107        -0.00090698
 108        -0.00149555
 109         0.00000000
 110         0.00007533
 111         0.00012422
 112        -0.00000000
 113         0.00000041
 114         0.00000067
 115         0.00000000
 116        -0.00000000
 117         0.00000000
 118         0.00000000
 119         0.00000000
 120        -0.00000000
 121        -0.49948428
 122        -0.00079239
 123        -0.00230925
 124         0.00074815
 125         0.00149561
 126         0.00090699
 127         0.00000000
 128        -0.00012422
 129        -0.00007533
 130        -0.00000000
 131        -0.00000067
 132        -0.00000041
 133        -0.00000000
 134        -0.00000000
 135        -0.00000000
 136        -0.00000000
 137         0.00000000
 138        -0.00000000
Sym=     3a  
Ene=   -11.3470
Spin= Alpha
Occup=    2.00000
   1         0.00274368
   2        -0.00039845
   3        -0.00000000
   4        -0.00000000
   5        -0.00000000
   6        -0.00137182
   7         0.00019922
   8         0.00000000
   9         0.00000000
  10        -0.00000000
  11        -0.00137186
  12         0.00019923
  13        -0.00000000
  14         0.00000000
  15        -0.00000000
  16        -0.00274368
  17         0.00039845
  18        -0.00000000
  19        -0.00000000
  20        -0.00000000
  21         0.00137182
  22        -0.00019922
  23         0.00000000
  24        -0.00000000
  25         0.00000000
  26         0.00137186
  27        -0.00019923
  28        -0.00000000
  29         0.00000000
  30         0.00000000
  31         0.57675778
  32         0.00091497
  33         0.00266650
  34        -0.00086390
  35        -0.00039928
  36        -0.00039924
  37        -0.00000000
  38         0.00003316
  39         0.00003316
  40         0.00000000
  41         0.00000018
  42         0.00000018
  43         0.00000000
  44         0.00000000
  45        -0.00000000
  46         0.00000000
  47        -0.00000000
  48         0.00000000
  49        -0.28837437
  50        -0.00045748
  51        -0.00133323
  52         0.00043194
  53         0.00048015
  54         0.00288271
  55        -0.00000000
  56        -0.00003988
  57        -0.00023944
  58         0.00000000
  59        -0.00000021
  60        -0.00000129
  61         0.00000000
  62         0.00000000
  63        -0.00000000
  64        -0.00000000
  65         0.00000000
  66        -0.00000000
  67        -0.28838347
  68        -0.00045749
  69        -0.00133327
  70         0.00043195
  71         0.00288269
  72         0.00048013
  73        -0.00000000
  74        -0.00023943
  75        -0.00003988
  76         0.00000000
  77        -0.00000129
  78        -0.00000021
  79         0.00000000
  80         0.00000000
  81        -0.00000000
  82        -0.00000000
  83        -0.00000000
  84         0.00000000
  85        -0.57675778
  86        -0.00091497
  87        -0.00266650
  88         0.00086390
  89        -0.00039928
  90        -0.00039924
  91         0.00000000
  92         0.00003316
  93         0.00003316
  94        -0.00000000
  95         0.00000018
  96         0.00000018
  97        -0.00000000
  98        -0.00000000
  99        -0.00000000
 100        -0.00000000
 101         0.00000000
 102         0.00000000
 103         0.28837437
 104         0.00045748
 105         0.00133323
 106        -0.00043194
 107         0.00048015
 108         0.00288271
 109         0.00000000
 110        -0.00003988
 111        -0.00023944
 112        -0.00000000
 113        -0.00000021
 114        -0.00000129
 115         0.00000000
 116        -0.00000000
 117        -0.00000000
 118         0.00000000
 119         0.00000000
 120        -0.00000000
 121         0.28838347
 122         0.00045749
 123         0.00133327
 124        -0.00043195
 125         0.00288269
 126         0.00048013
 127        -0.00000000
 128        -0.00023943
 129        -0.00003988
 130        -0.00000000
 131        -0.00000129
 132        -0.00000021
 133        -0.00000000
 134        -0.00000000
 135         0.00000000
 136        -0.00000000
 137        -0.00000000
 138        -0.00000000
Sym=     4a  
Ene=   -11.3320
Spin= Alpha
Occup=    2.00000
   1        -0.00208521
   2         0.00030283
   3         0.00000000
   4         0.00000000
   5         0.00000000
   6         0.00104255
   7        -0.00015140
   8        -0.00000000
   9        -0.00000000
  10         0.00000000
  11         0.00104267
  12        -0.00015142
  13         0.00000000
  14        -0.00000000
  15        -0.00000000
  16        -0.00208521
  17         0.00030283
  18         0.00000000
  19        -0.00000000
  20        -0.00000000
  21         0.00104255
  22        -0.00015140
  23        -0.00000000
  24         0.00000000
  25        -0.00000000
  26         0.00104267
  27        -0.00015142
  28         0.00000000
  29        -0.00000000
  30        -0.00000000
  31        -0.57721836
  32         0.00281622
  33        -0.00297739
  34         0.00087699
  35        -0.00082369
  36        -0.00082355
  37        -0.00000000
  38         0.00006841
  39         0.00006840
  40        -0.00000000
  41         0.00000037
  42         0.00000037
  43         0.00000000
  44        -0.00000000
  45         0.00000000
  46        -0.00000000
  47        -0.00000000
  48         0.00000000
  49         0.28859239
  50        -0.00140803
  51         0.00148861
  52        -0.00043847
  53         0.00006052
  54         0.00247591
  55        -0.00000000
  56        -0.00000503
  57        -0.00020565
  58        -0.00000000
  59        -0.00000003
  60        -0.00000111
  61         0.00000000
  62        -0.00000000
  63         0.00000000
  64        -0.00000000
  65         0.00000000
  66         0.00000000
  67         0.28862584
  68        -0.00140819
  69         0.00148878
  70        -0.00043852
  71         0.00247584
  72         0.00006043
  73         0.00000000
  74        -0.00020564
  75        -0.00000502
  76        -0.00000000
  77        -0.00000111
  78        -0.00000003
  79        -0.00000000
  80        -0.00000000
  81         0.00000000
  82         0.00000000
  83        -0.00000000
  84        -0.00000000
  85        -0.57721836
  86         0.00281622
  87        -0.00297739
  88         0.00087699
  89         0.00082369
  90         0.00082355
  91         0.00000000
  92        -0.00006841
  93        -0.00006840
  94         0.00000000
  95        -0.00000037
  96        -0.00000037
  97        -0.00000000
  98         0.00000000
  99        -0.00000000
 100        -0.00000000
 101         0.00000000
 102         0.00000000
 103         0.28859239
 104        -0.00140803
 105         0.00148861
 106        -0.00043847
 107        -0.00006052
 108        -0.00247591
 109        -0.00000000
 110         0.00000503
 111         0.00020565
 112         0.00000000
 113         0.00000003
 114         0.00000111
 115         0.00000000
 116         0.00000000
 117         0.00000000
 118        -0.00000000
 119         0.00000000
 120        -0.00000000
 121         0.28862584
 122        -0.00140819
 123         0.00148878
 124        -0.00043852
 125        -0.00247584
 126        -0.00006043
 127        -0.00000000
 128         0.00020564
 129         0.00000502
 130         0.00000000
 131         0.00000111
 132         0.00000003
 133        -0.00000000
 134         0.00000000
 135        -0.00000000
 136         0.00000000
 137        -0.00000000
 138        -0.00000000
Sym=     5a  
Ene=   -11.3320
Spin= Alpha
Occup=    2.00000
   1         0.00000007
   2        -0.00000001
   3         0.00000000
   4        -0.00000000
   5        -0.00000000
   6        -0.00180588
   7         0.00026226
   8        -0.00000000
   9        -0.00000000
  10        -0.00000000
  11         0.00180581
  12        -0.00026225
  13        -0.00000000
  14        -0.00000000
  15         0.00000000
  16         0.00000007
  17        -0.00000001
  18        -0.00000000
  19         0.00000000
  20        -0.00000000
  21        -0.00180588
  22         0.00026226
  23        -0.00000000
  24        -0.00000000
  25         0.00000000
  26         0.00180581
  27        -0.00026225
  28        -0.00000000
  29        -0.00000000
  30         0.00000000
  31         0.00001931
  32        -0.00000009
  33         0.00000010
  34        -0.00000003
  35        -0.00196541
  36         0.00196547
  37        -0.00000000
  38         0.00016325
  39        -0.00016325
  40         0.00000000
  41         0.00000088
  42        -0.00000088
  43         0.00000000
  44        -0.00000000
  45         0.00000000
  46        -0.00000000
  47         0.00000000
  48         0.00000000
  49        -0.49989538
  50         0.00243897
  51        -0.00257854
  52         0.00075951
  53         0.00133405
  54         0.00108126
  55         0.00000000
  56        -0.00011081
  57        -0.00008981
  58         0.00000000
  59        -0.00000060
  60        -0.00000048
  61        -0.00000000
  62        -0.00000000
  63        -0.00000000
  64        -0.00000000
  65        -0.00000000
  66         0.00000000
  67         0.49987607
  68        -0.00243887
  69         0.00257844
  70        -0.00075948
  71        -0.00108143
  72        -0.00133406
  73         0.00000000
  74         0.00008982
  75         0.00011081
  76         0.00000000
  77         0.00000048
  78         0.00000060
  79         0.00000000
  80         0.00000000
  81        -0.00000000
  82         0.00000000
  83        -0.00000000
  84         0.00000000
  85         0.00001931
  86        -0.00000009
  87         0.00000010
  88        -0.00000003
  89         0.00196541
  90        -0.00196547
  91        -0.00000000
  92        -0.00016325
  93         0.00016325
  94         0.00000000
  95        -0.00000088
  96         0.00000088
  97        -0.00000000
  98        -0.00000000
  99         0.00000000
 100        -0.00000000
 101        -0.00000000
 102         0.00000000
 103        -0.49989538
 104         0.00243897
 105        -0.00257854
 106         0.00075951
 107        -0.00133405
 108        -0.00108126
 109         0.00000000
 110         0.00011081
 111         0.00008981
 112        -0.00000000
 113         0.00000060
 114         0.00000048
 115        -0.00000000
 116         0.00000000
 117        -0.00000000
 118        -0.00000000
 119         0.00000000
 120        -0.00000000
 121         0.49987607
 122        -0.00243887
 123         0.00257844
 124        -0.00075948
 125         0.00108143
 126         0.00133406
 127         0.00000000
 128        -0.00008982
 129        -0.00011081
 130        -0.00000000
 131        -0.00000048
 132        -0.00000060
 133        -0.00000000
 134         0.00000000
 135        -0.00000000
 136         0.00000000
 137        -0.00000000
 138        -0.00000000
Sym=     6a  
Ene=   -11.3240
Spin= Alpha
Occup=    2.00000
   1        -0.00126222
   2         0.00018331
   3         0.00000000
   4         0.00000000
   5        -0.00000000
   6        -0.00126222
   7         0.00018331
   8        -0.00000000
   9         0.00000000
  10        -0.00000000
  11        -0.00126222
  12         0.00018331
  13         0.00000000
  14        -0.00000000
  15        -0.00000000
  16         0.00126222
  17        -0.00018331
  18         0.00000000
  19         0.00000000
  20         0.00000000
  21         0.00126222
  22        -0.00018331
  23        -0.00000000
  24         0.00000000
  25         0.00000000
  26         0.00126222
  27        -0.00018331
  28         0.00000000
  29        -0.00000000
  30        -0.00000000
  31        -0.40832559
  32         0.00304270
  33        -0.00219312
  34         0.00062388
  35        -0.00079165
  36        -0.00079165
  37         0.00000000
  38         0.00006575
  39         0.00006575
  40        -0.00000000
  41         0.00000035
  42         0.00000035
  43        -0.00000000
  44        -0.00000000
  45         0.00000000
  46        -0.00000000
  47        -0.00000000
  48         0.00000000
  49        -0.40832555
  50         0.00304270
  51        -0.00219312
  52         0.00062388
  53         0.00108141
  54        -0.00028976
  55        -0.00000000
  56        -0.00008982
  57         0.00002407
  58        -0.00000000
  59        -0.00000048
  60         0.00000013
  61         0.00000000
  62        -0.00000000
  63         0.00000000
  64         0.00000000
  65         0.00000000
  66        -0.00000000
  67        -0.40832555
  68         0.00304270
  69        -0.00219312
  70         0.00062388
  71        -0.00028976
  72         0.00108141
  73        -0.00000000
  74         0.00002407
  75        -0.00008982
  76         0.00000000
  77         0.00000013
  78        -0.00000048
  79         0.00000000
  80        -0.00000000
  81        -0.00000000
  82        -0.00000000
  83        -0.00000000
  84        -0.00000000
  85         0.40832559
  86        -0.00304270
  87         0.00219312
  88        -0.00062388
  89        -0.00079165
  90        -0.00079165
  91        -0.00000000
  92         0.00006575
  93         0.00006575
  94         0.00000000
  95         0.00000035
  96         0.00000035
  97         0.00000000
  98         0.00000000
  99         0.00000000
 100         0.00000000
 101         0.00000000
 102        -0.00000000
 103         0.40832555
 104        -0.00304270
 105         0.00219312
 106        -0.00062388
 107         0.00108141
 108        -0.00028976
 109         0.00000000
 110        -0.00008982
 111         0.00002407
 112        -0.00000000
 113        -0.00000048
 114         0.00000013
 115        -0.00000000
 116         0.00000000
 117        -0.00000000
 118        -0.00000000
 119         0.00000000
 120         0.00000000
 121         0.40832555
 122        -0.00304270
 123         0.00219312
 124        -0.00062388
 125        -0.00028976
 126         0.00108141
 127         0.00000000
 128         0.00002407
 129        -0.00008982
 130         0.00000000
 131         0.00000013
 132        -0.00000048
 133         0.00000000
 134         0.00000000
 135         0.00000000
 136         0.00000000
 137         0.00000000
 138        -0.00000000
Sym=     7a  
Ene=    -1.7665
Spin= Alpha
Occup=    2.00000
   1         0.07907135
   2        -0.01148322
   3         0.00000000
   4         0.00000000
   5        -0.00000000
   6         0.07907138
   7        -0.01148322
   8        -0.00000000
   9        -0.00000000
  10        -0.00000000
  11         0.07907138
  12        -0.01148322
  13        -0.00000000
  14        -0.00000000
  15        -0.00000000
  16         0.07907135
  17        -0.01148322
  18         0.00000000
  19        -0.00000000
  20         0.00000000
  21         0.07907138
  22        -0.01148322
  23        -0.00000000
  24         0.00000000
  25         0.00000000
  26         0.07907138
  27        -0.01148322
  28        -0.00000000
  29         0.00000000
  30        -0.00000000
  31        -0.04162325
  32         0.24648521
  33        -0.02059049
  34         0.00088199
  35        -0.05322658
  36        -0.05322658
  37         0.00000000
  38         0.00442097