 argument  1 = ammonium.nw
 


============================== echo of input deck ==============================
start ammonium
title "ammonium opt+freq (B3LYP/6-31g*)"
echo

geometry units angstrom
  N  0.000000  0.000000  0.000000
  H  0.588897  0.588897  0.588897
  H  0.588897  -0.588897  -0.588897
  H  -0.588897  0.588897  -0.588897
  H  -0.588897  -0.588897  0.588897
end

charge 1

basis
  * library 6-31g*
end

dft
  xc b3lyp
  grid xfine
end

driver
  maxiter 200
end

task dft optimize
task dft freq
================================================================================


                                         
                                         
 
 
             Northwest Computational Chemistry Package (NWChem) 7.2.2
             --------------------------------------------------------
 
 
                    Environmental Molecular Sciences Laboratory
                       Pacific Northwest National Laboratory
                                Richland, WA 99352
 
                              Copyright (c) 1994-2022
                       Pacific Northwest National Laboratory
                            Battelle Memorial Institute
 
             NWChem is an open-source computational chemistry package
                        distributed under the terms of the
                      Educational Community License (ECL) 2.0
             A copy of the license is included with this distribution
                              in the LICENSE.TXT file
 
                                  ACKNOWLEDGMENT
                                  --------------

            This software and its documentation were developed at the
            EMSL at Pacific Northwest National Laboratory, a multiprogram
            national laboratory, operated for the U.S. Department of Energy
            by Battelle under Contract Number DE-AC05-76RL01830. Support
            for this work was provided by the Department of Energy Office
            of Biological and Environmental Research, Office of Basic
            Energy Sciences, and the Office of Advanced Scientific Computing.


           Job information
           ---------------

    hostname        = charliebox
    program         = /apps/nwchem/bin/nwchem
    date            = Sun Oct 19 14:37:07 2025

    compiled        = Tue_Apr_23_01:04:59_2024
    source          = /apps/nwchem-7.2.2-release
    nwchem branch   = 7.2.2
    nwchem revision = N/A
    ga revision     = 5.8.0
    use scalapack   = T
    input           = ammonium.nw
    prefix          = ammonium.
    data base       = ./ammonium.db
    status          = startup
    nproc           =       19
    time left       =     -1s



           Memory information
           ------------------

    heap     =   26214394 doubles =    200.0 Mbytes
    stack    =   26214399 doubles =    200.0 Mbytes
    global   =   52428800 doubles =    400.0 Mbytes (distinct from heap & stack)
    total    =  104857593 doubles =    800.0 Mbytes
    verify   = yes
    hardfail = no 


           Directory information
           ---------------------
 
  0 permanent = .
  0 scratch   = .
 
 
 
 
                                NWChem Input Module
                                -------------------
 
 
                         ammonium opt+freq (B3LYP/6-31g*)
                         --------------------------------

 Scaling coordinates for geometry "geometry" by  1.889725989
 (inverse scale =  0.529177249)

 TD  symmetry detected

          ------
          auto-z
          ------
  Looking for out-of-plane bends
  no constraints, skipping   0.000000000000000E+000
  no constraints, skipping   0.000000000000000E+000
 
 
                             Geometry "geometry" -> ""
                             -------------------------
 
 Output coordinates in angstroms (scale by  1.889725989 to convert to a.u.)
 
  No.       Tag          Charge          X              Y              Z
 ---- ---------------- ---------- -------------- -------------- --------------
    1 N                    7.0000     0.00000000     0.00000000     0.00000000
    2 H                    1.0000     0.58889700     0.58889700     0.58889700
    3 H                    1.0000    -0.58889700    -0.58889700     0.58889700
    4 H                    1.0000     0.58889700    -0.58889700    -0.58889700
    5 H                    1.0000    -0.58889700     0.58889700    -0.58889700
 
      Atomic Mass 
      ----------- 
 
      N                 14.003070
      H                  1.007825
 

 Effective nuclear repulsion energy (a.u.)      16.4326393650

            Nuclear Dipole moment (a.u.) 
            ----------------------------
        X                 Y               Z
 ---------------- ---------------- ----------------
     0.0000000000     0.0000000000     0.0000000000
 
      Symmetry information
      --------------------
 
 Group name              Td       
 Group number             42
 Group order              24
 No. of unique centers     2
 
      Symmetry unique atoms
 
     1    2
 


                                Z-matrix (autoz)
                                -------- 

 Units are Angstrom for bonds and degrees for angles
 
      Type          Name      I     J     K     L     M      Value
      ----------- --------  ----- ----- ----- ----- ----- ----------
    1 Stretch                  1     2                       1.02000
    2 Stretch                  1     3                       1.02000
    3 Stretch                  1     4                       1.02000
    4 Stretch                  1     5                       1.02000
    5 Bend                     2     1     3               109.47122
    6 Bend                     2     1     4               109.47122
    7 Bend                     2     1     5               109.47122
    8 Bend                     3     1     4               109.47122
    9 Bend                     3     1     5               109.47122
   10 Bend                     4     1     5               109.47122
 
 
            XYZ format geometry
            -------------------
     5
 geometry
 N                     0.00000000     0.00000000     0.00000000
 H                     0.58889700     0.58889700     0.58889700
 H                    -0.58889700    -0.58889700     0.58889700
 H                     0.58889700    -0.58889700    -0.58889700
 H                    -0.58889700     0.58889700    -0.58889700
 
 ==============================================================================
                                internuclear distances
 ------------------------------------------------------------------------------
       center one      |      center two      | atomic units |  angstroms
 ------------------------------------------------------------------------------
    2 H                |   1 N                |     1.92752  |     1.02000
    3 H                |   1 N                |     1.92752  |     1.02000
    4 H                |   1 N                |     1.92752  |     1.02000
    5 H                |   1 N                |     1.92752  |     1.02000
 ------------------------------------------------------------------------------
                         number of included internuclear distances:          4
 ==============================================================================



 ==============================================================================
                                 internuclear angles
 ------------------------------------------------------------------------------
        center 1       |       center 2       |       center 3       |  degrees
 ------------------------------------------------------------------------------
    2 H                |   1 N                |   3 H                |   109.47
    2 H                |   1 N                |   4 H                |   109.47
    2 H                |   1 N                |   5 H                |   109.47
    3 H                |   1 N                |   4 H                |   109.47
    3 H                |   1 N                |   5 H                |   109.47
    4 H                |   1 N                |   5 H                |   109.47
 ------------------------------------------------------------------------------
                            number of included internuclear angles:          6
 ==============================================================================



  library name resolved from: environment
  library file name is: </apps/nwchem/data/libraries/>
  


 Summary of "ao basis" -> "" (cartesian)
 ------------------------------------------------------------------------------
       Tag                 Description            Shells   Functions and Types
 ---------------- ------------------------------  ------  ---------------------
 *                           6-31g*                   on all atoms 


 
 
                           NWChem Geometry Optimization
                           ----------------------------
 
 
 
 
                         ammonium opt+freq (B3LYP/6-31g*)
 
 
  no constraints, skipping   0.000000000000000E+000
 maximum gradient threshold         (gmax) =   0.000450
 rms gradient threshold             (grms) =   0.000300
 maximum cartesian step threshold   (xmax) =   0.001800
 rms cartesian step threshold       (xrms) =   0.001200
 fixed trust radius                (trust) =   0.300000
 maximum step size to saddle      (sadstp) =   0.100000
 energy precision                  (eprec) =   5.0D-06
 maximum number of steps          (nptopt) =  200
 initial hessian option           (inhess) =    0
 line search option               (linopt) =    1
 hessian update option            (modupd) =    1
 saddle point option              (modsad) =    0
 initial eigen-mode to follow     (moddir) =    0
 initial variable to follow       (vardir) =    0
 follow first negative mode     (firstneg) =    T
 apply conjugacy                    (opcg) =    F
 source of zmatrix                         =   autoz   


          -------------------
          Energy Minimization
          -------------------

 
 Names of Z-matrix variables 
    1              2              3              4              5         
    6              7              8              9             10         
 
 Variables with the same non-blank name are constrained to be equal
 
 
 Using old Hessian from previous optimization

          --------
          Step   0
          --------
 
 
                         Geometry "geometry" -> "geometry"
                         ---------------------------------
 
 Output coordinates in angstroms (scale by  1.889725989 to convert to a.u.)
 
  No.       Tag          Charge          X              Y              Z
 ---- ---------------- ---------- -------------- -------------- --------------
    1 N                    7.0000     0.00000000     0.00000000     0.00000000
    2 H                    1.0000     0.58889700     0.58889700     0.58889700
    3 H                    1.0000    -0.58889700    -0.58889700     0.58889700
    4 H                    1.0000     0.58889700    -0.58889700    -0.58889700
    5 H                    1.0000    -0.58889700     0.58889700    -0.58889700
 
      Atomic Mass 
      ----------- 
 
      N                 14.003070
      H                  1.007825
 

 Effective nuclear repulsion energy (a.u.)      16.4326393650

            Nuclear Dipole moment (a.u.) 
            ----------------------------
        X                 Y               Z
 ---------------- ---------------- ----------------
     0.0000000000     0.0000000000     0.0000000000
 
      Symmetry information
      --------------------
 
 Group name              Td       
 Group number             42
 Group order              24
 No. of unique centers     2
 
      Symmetry unique atoms
 
     1    2
 
 
                                 NWChem DFT Module
                                 -----------------
 
 
                         ammonium opt+freq (B3LYP/6-31g*)
 
 
                      Basis "ao basis" -> "ao basis" (cartesian)
                      -----
  N (Nitrogen)
  ------------
            Exponent  Coefficients 
       -------------- ---------------------------------------------------------
  1 S  4.17351100E+03  0.001835
  1 S  6.27457900E+02  0.013995
  1 S  1.42902100E+02  0.068587
  1 S  4.02343300E+01  0.232241
  1 S  1.28202100E+01  0.469070
  1 S  4.39043700E+00  0.360455
 
  2 S  1.16263580E+01 -0.114961
  2 S  2.71628000E+00 -0.169118
  2 S  7.72218000E-01  1.145852
 
  3 P  1.16263580E+01  0.067580
  3 P  2.71628000E+00  0.323907
  3 P  7.72218000E-01  0.740895
 
  4 S  2.12031300E-01  1.000000
 
  5 P  2.12031300E-01  1.000000
 
  6 D  8.00000000E-01  1.000000
 
  H (Hydrogen)
  ------------
            Exponent  Coefficients 
       -------------- ---------------------------------------------------------
  1 S  1.87311370E+01  0.033495
  1 S  2.82539370E+00  0.234727
  1 S  6.40121700E-01  0.813757
 
  2 S  1.61277800E-01  1.000000
 


 Summary of "ao basis" -> "ao basis" (cartesian)
 ------------------------------------------------------------------------------
       Tag                 Description            Shells   Functions and Types
 ---------------- ------------------------------  ------  ---------------------
 N                           6-31g*                  6       15   3s2p1d
 H                           6-31g*                  2        2   2s




 Summary of "ao basis" -> "ao basis" (cartesian)
 ------------------------------------------------------------------------------
       Tag                 Description            Shells   Functions and Types
 ---------------- ------------------------------  ------  ---------------------
 N                           6-31g*                  6       15   3s2p1d
 H                           6-31g*                  2        2   2s


      Symmetry analysis of basis
      --------------------------
 
        a1          6
        a2          0
        e           2
        t1          0
        t2         15
 
  Caching 1-el integrals 
 
            General Information
            -------------------
          SCF calculation type: DFT
          Wavefunction type:  closed shell.
          No. of atoms     :     5
          No. of electrons :    10
           Alpha electrons :     5
            Beta electrons :     5
          Charge           :     1
          Spin multiplicity:     1
          Use of symmetry is: on ; symmetry adaption is: on 
          Maximum number of iterations:  50
          AO basis - number of functions:    23
                     number of shells:    14
          Convergence on energy requested:  1.00D-06
          Convergence on density requested:  1.00D-05
          Convergence on gradient requested:  5.00D-04
 
              XC Information
              --------------
                         B3LYP Method XC Potential
                     Hartree-Fock (Exact) Exchange  0.200          
                        Slater Exchange Functional  0.800 local    
                    Becke 1988 Exchange Functional  0.720 non-local
              Lee-Yang-Parr Correlation Functional  0.810          
                  VWN I RPA Correlation Functional  0.190 local    
 
             Grid Information
             ----------------
          Grid used for XC integration:  xfine     
          Radial quadrature: Mura-Knowles        
          Angular quadrature: Lebedev. 
          Tag              B.-S. Rad. Rad. Pts. Rad. Cut. Ang. Pts.
          ---              ---------- --------- --------- ---------
          N                   0.65      100           6.0      1454
          H                   0.35      100           7.0      1202
          Grid pruning is: on 
          Number of quadrature shells:   200
          Spatial weights used:  Erf1
 
          Convergence Information
          -----------------------
          Convergence aids based upon iterative change in 
          total energy or number of iterations. 
          Levelshifting, if invoked, occurs when the 
          HOMO/LUMO gap drops below (HL_TOL):  1.00D-02
          DIIS, if invoked, will attempt to extrapolate 
          using up to (NFOCK): 10 stored Fock matrices.

                    Damping( 0%)  Levelshifting(0.5)       DIIS
                  --------------- ------------------- ---------------
          dE  on:    start            ASAP                start   
          dE off:    2 iters         50 iters            50 iters 

 
      Screening Tolerance Information
      -------------------------------
          Density screening/tol_rho:  1.00D-10
          AO Gaussian exp screening on grid/accAOfunc:  14
          CD Gaussian exp screening on grid/accCDfunc:  20
          XC Gaussian exp screening on grid/accXCfunc:  20
          Schwarz screening/accCoul:  1.00D-08

 
      Superposition of Atomic Density Guess
      -------------------------------------
 
 Sum of atomic energies:         -56.28666840

 Renormalizing density from      11.00 to     10
 
      Non-variational initial energy
      ------------------------------

 Total energy =     -53.154076
 1-e energy   =     -97.626212
 2-e energy   =      28.039497
 HOMO         =      -1.181738
 LUMO         =      -0.264402
 
 
      Symmetry analysis of molecular orbitals - initial
      -------------------------------------------------
 
  Numbering of irreducible representations: 
 
     1 a1          2 a2          3 e           4 t1          5 t2      
 
  Orbital symmetries:
 
     1 a1          2 a1          3 t2          4 t2          5 t2      
     6 a1          7 t2          8 t2          9 t2         10 t2      
    11 t2         12 t2         13 t2         14 t2         15 t2      
 
  WARNING: movecs_in_org=atomic not equal to movecs_in=./ammonium.movecs
   Time after variat. SCF:      5.1
   Time prior to 1st pass:      5.1

 #quartets = 1.101D+03 #integrals = 8.767D+03 #direct =  0.0% #cached =100.0%


 Integral file          = ./ammonium.aoints.00
 Record size in doubles =  65536        No. of integs per rec  =  43688
 Max. records in memory =      3        Max. records in file   = 224883
 No. of bits per label  =      8        No. of bits per value  =     64


File balance: exchanges=     0  moved=     0  time=   0.0


 Grid_pts file          = ./ammonium.gridpts.00
 Record size in doubles =  12289        No. of grid_pts per rec  =   3070
 Max. records in memory =      7        Max. recs in file   =   1199274


           Memory utilization after 1st SCF pass: 
           Heap Space remaining (MW):       25.93            25929682
          Stack Space remaining (MW):       26.21            26214108

   convergence    iter        energy       DeltaE   RMS-Dens  Diis-err    time
 ---------------- ----- ----------------- --------- --------- ---------  ------
 d= 0,ls=0.0,diis     1    -56.7017193133 -7.31D+01  5.11D-02  2.19D+00     5.7
 d= 0,ls=0.0,diis     2    -56.6176798987  8.40D-02  3.13D-02  2.56D+00     7.2
 d= 0,ls=0.0,diis     3    -56.8921542130 -2.74D-01  2.24D-03  1.37D-02     8.6
 d= 0,ls=0.0,diis     4    -56.8936086218 -1.45D-03  6.60D-05  1.03D-06     8.6
 d= 0,ls=0.0,diis     5    -56.8936097996 -1.18D-06  5.29D-06  6.16D-08     8.6
 d= 0,ls=0.0,diis     6    -56.8936098055 -5.93D-09  1.29D-07  5.97D-11     9.1


         Total DFT energy =      -56.893609805515
      One electron energy =     -105.008183724898
           Coulomb energy =       39.806578503035
    Exchange-Corr. energy =       -8.124643948608
 Nuclear repulsion energy =       16.432639364955

 Numeric. integr. density =        9.999999991096

     Total iterative time =      4.4s


 
                  Occupations of the irreducible representations
                  ----------------------------------------------
 
                     irrep           alpha         beta
                     --------     --------     --------
                     a1                2.0          2.0
                     a2                0.0          0.0
                     e                 0.0          0.0
                     t1                0.0          0.0
                     t2                3.0          3.0
 
 
                       DFT Final Molecular Orbital Analysis
                       ------------------------------------
 
 Vector    1  Occ=2.000000D+00  E=-1.471339D+01  Symmetry=a1
              MO Center= -2.4D-22, -5.0D-22,  6.1D-22, r^2= 2.0D-02
   Bfn.  Coefficient  Atom+Function         Bfn.  Coefficient  Atom+Function  
  ----- ------------  ---------------      ----- ------------  ---------------
     1      0.992555  1 N  s                  2      0.034997  1 N  s          
 
 Vector    2  Occ=2.000000D+00  E=-1.254324D+00  Symmetry=a1
              MO Center= -2.4D-18,  2.4D-18, -9.3D-18, r^2= 6.9D-01
   Bfn.  Coefficient  Atom+Function         Bfn.  Coefficient  Atom+Function  
  ----- ------------  ---------------      ----- ------------  ---------------
     2      0.443898  1 N  s                  6      0.443026  1 N  s          
     1     -0.206234  1 N  s                 16      0.118386  2 H  s          
    18      0.118386  3 H  s                 20      0.118386  4 H  s          
    22      0.118386  5 H  s          
 
 Vector    3  Occ=2.000000D+00  E=-8.311404D-01  Symmetry=t2
              MO Center=  5.3D-02, -1.9D-01, -3.7D-02, r^2= 8.7D-01
   Bfn.  Coefficient  Atom+Function         Bfn.  Coefficient  Atom+Function  
  ----- ------------  ---------------      ----- ------------  ---------------
     5      0.426296  1 N  pz                 3     -0.301690  1 N  px         
    20     -0.250989  4 H  s                  9      0.243665  1 N  pz         
    18      0.198121  3 H  s                  7     -0.172443  1 N  px         
     4      0.085697  1 N  py                21     -0.074923  4 H  s          
    16      0.064870  2 H  s                 19      0.059141  3 H  s          
 
 Vector    4  Occ=2.000000D+00  E=-8.311404D-01  Symmetry=t2
              MO Center=  6.5D-02,  3.9D-02,  1.7D-01, r^2= 8.8D-01
   Bfn.  Coefficient  Atom+Function         Bfn.  Coefficient  Atom+Function  
  ----- ------------  ---------------      ----- ------------  ---------------
     4      0.444090  1 N  py                 3      0.269427  1 N  px         
     8      0.253837  1 N  py                16      0.251370  2 H  s          
    18     -0.188814  3 H  s                  7      0.154001  1 N  px         
     5      0.101400  1 N  pz                20     -0.085155  4 H  s          
    17      0.075037  2 H  s                  9      0.057959  1 N  pz         
 
 Vector    5  Occ=2.000000D+00  E=-8.311404D-01  Symmetry=t2
              MO Center= -1.2D-01,  1.5D-01, -1.4D-01, r^2= 8.6D-01
   Bfn.  Coefficient  Atom+Function         Bfn.  Coefficient  Atom+Function  
  ----- ------------  ---------------      ----- ------------  ---------------
     3      0.341293  1 N  px                 5      0.296781  1 N  pz         
    22     -0.281593  5 H  s                  4     -0.274825  1 N  py         
     7      0.195079  1 N  px                 9      0.169636  1 N  pz         
     8     -0.157087  1 N  py                16      0.112048  2 H  s          
    20      0.098503  4 H  s                 23     -0.084059  5 H  s          
 
 Vector    6  Occ=0.000000D+00  E=-2.082863D-01  Symmetry=a1
              MO Center= -1.4D-17, -1.4D-17,  1.2D-16, r^2= 3.2D+00
   Bfn.  Coefficient  Atom+Function         Bfn.  Coefficient  Atom+Function  
  ----- ------------  ---------------      ----- ------------  ---------------
     6      1.775996  1 N  s                 17     -0.703599  2 H  s          
    19     -0.703599  3 H  s                 21     -0.703599  4 H  s          
    23     -0.703599  5 H  s                  2      0.274826  1 N  s          
     1     -0.138431  1 N  s                 16     -0.079236  2 H  s          
    18     -0.079236  3 H  s                 20     -0.079236  4 H  s          
 
 Vector    7  Occ=0.000000D+00  E=-1.266430D-01  Symmetry=t2
              MO Center=  3.7D-01,  2.1D-01,  5.1D-01, r^2= 2.5D+00
   Bfn.  Coefficient  Atom+Function         Bfn.  Coefficient  Atom+Function  
  ----- ------------  ---------------      ----- ------------  ---------------
    17      1.505687  2 H  s                 19     -0.875902  3 H  s          
     8     -0.770790  1 N  py                21     -0.637151  4 H  s          
     7     -0.442456  1 N  px                 4     -0.354203  1 N  py         
     9     -0.320829  1 N  pz                 3     -0.203322  1 N  px         
    16      0.203635  2 H  s                  5     -0.147431  1 N  pz         
 
 Vector    8  Occ=0.000000D+00  E=-1.266430D-01  Symmetry=t2
              MO Center= -1.1D-01, -5.4D-01,  6.1D-02, r^2= 2.6D+00
   Bfn.  Coefficient  Atom+Function         Bfn.  Coefficient  Atom+Function  
  ----- ------------  ---------------      ----- ------------  ---------------
    19      1.338952  3 H  s                 21     -1.156363  4 H  s          
     9     -0.830799  1 N  pz                23     -0.474489  5 H  s          
     7      0.440381  1 N  px                 5     -0.381779  1 N  pz         
    17      0.291899  2 H  s                  3      0.202369  1 N  px         
    18      0.181085  3 H  s                 20     -0.156391  4 H  s          
 
 Vector    9  Occ=0.000000D+00  E=-1.266430D-01  Symmetry=t2
              MO Center= -2.5D-01,  3.3D-01, -5.7D-01, r^2= 2.4D+00
   Bfn.  Coefficient  Atom+Function         Bfn.  Coefficient  Atom+Function  
  ----- ------------  ---------------      ----- ------------  ---------------
    23      1.534614  5 H  s                 21     -0.914931  4 H  s          
     7      0.709304  1 N  px                 8     -0.538559  1 N  py         
    17     -0.477427  2 H  s                  3      0.325948  1 N  px         
     9      0.315683  1 N  pz                 4     -0.247485  1 N  py         
    22      0.207547  5 H  s                  5      0.145067  1 N  pz         
 
 Vector   10  Occ=0.000000D+00  E= 3.370372D-01  Symmetry=t2
              MO Center= -1.1D-01,  1.3D-02,  8.2D-03, r^2= 1.7D+00
   Bfn.  Coefficient  Atom+Function         Bfn.  Coefficient  Atom+Function  
  ----- ------------  ---------------      ----- ------------  ---------------
     9      1.046954  1 N  pz                 8      0.656867  1 N  py         
    20      0.622775  4 H  s                 16     -0.568742  2 H  s          
     5     -0.383493  1 N  pz                11     -0.272143  1 N  dxy        
     4     -0.240607  1 N  py                12     -0.170745  1 N  dxz        
    18     -0.163414  3 H  s                 22      0.109382  5 H  s          
 
 Vector   11  Occ=0.000000D+00  E= 3.370372D-01  Symmetry=t2
              MO Center=  4.1D-02,  5.7D-02, -1.1D-01, r^2= 1.7D+00
   Bfn.  Coefficient  Atom+Function         Bfn.  Coefficient  Atom+Function  
  ----- ------------  ---------------      ----- ------------  ---------------
     7      0.960287  1 N  px                18      0.704942  3 H  s          
     8      0.692302  1 N  py                16     -0.450748  2 H  s          
     9     -0.363487  1 N  pz                 3     -0.351748  1 N  px         
     4     -0.253586  1 N  py                14     -0.249615  1 N  dyz        
    20     -0.220801  4 H  s                 12     -0.179955  1 N  dxz        
 
 Vector   12  Occ=0.000000D+00  E= 3.370372D-01  Symmetry=t2
              MO Center=  7.1D-02, -7.0D-02,  1.0D-01, r^2= 1.7D+00
   Bfn.  Coefficient  Atom+Function         Bfn.  Coefficient  Atom+Function  
  ----- ------------  ---------------      ----- ------------  ---------------
     8     -0.789177  1 N  py                 7      0.778097  1 N  px         
    22      0.741222  5 H  s                  9      0.552559  1 N  pz         
    20     -0.354806  4 H  s                  4      0.289071  1 N  py         
     3     -0.285013  1 N  px                12      0.205137  1 N  dxz        
     5     -0.202399  1 N  pz                14     -0.202257  1 N  dyz        
 
 Vector   13  Occ=0.000000D+00  E= 5.768234D-01  Symmetry=t2
              MO Center= -7.2D-02, -2.8D-01,  1.8D-01, r^2= 2.1D+00
   Bfn.  Coefficient  Atom+Function         Bfn.  Coefficient  Atom+Function  
  ----- ------------  ---------------      ----- ------------  ---------------
    19      1.471219  3 H  s                  7      1.287805  1 N  px         
    21     -1.011962  4 H  s                  3     -0.829580  1 N  px         
    17     -0.762618  2 H  s                 18     -0.538127  3 H  s          
     9     -0.514229  1 N  pz                20      0.370145  4 H  s          
     8      0.333281  1 N  py                 5      0.331257  1 N  pz         
 
 Vector   14  Occ=0.000000D+00  E= 5.768234D-01  Symmetry=t2
              MO Center=  2.2D-01,  2.3D-01,  7.0D-02, r^2= 2.1D+00
   Bfn.  Coefficient  Atom+Function         Bfn.  Coefficient  Atom+Function  
  ----- ------------  ---------------      ----- ------------  ---------------
    17      1.461221  2 H  s                  9     -1.303886  1 N  pz         
    23     -0.910422  5 H  s                 21     -0.886317  4 H  s          
     5      0.839939  1 N  pz                16     -0.534470  2 H  s          
     7     -0.417205  1 N  px                 8     -0.399712  1 N  py         
    19      0.335518  3 H  s                 22      0.333005  5 H  s          
 
 Vector   15  Occ=0.000000D+00  E= 5.768234D-01  Symmetry=t2
              MO Center= -1.5D-01,  5.0D-02, -2.5D-01, r^2= 2.1D+00
   Bfn.  Coefficient  Atom+Function         Bfn.  Coefficient  Atom+Function  
  ----- ------------  ---------------      ----- ------------  ---------------
    23     -1.405606  5 H  s                  8      1.327818  1 N  py         
    21      1.042593  4 H  s                  4     -0.855356  1 N  py         
    19      0.787125  3 H  s                 22      0.514128  5 H  s          
     7     -0.448829  1 N  px                17     -0.424112  2 H  s          
    20     -0.381349  4 H  s                  3      0.289127  1 N  px         
 
 Vector   16  Occ=0.000000D+00  E= 6.126511D-01  Symmetry=a1
              MO Center=  8.1D-15, -1.2D-14,  4.5D-15, r^2= 2.1D+00
   Bfn.  Coefficient  Atom+Function         Bfn.  Coefficient  Atom+Function  
  ----- ------------  ---------------      ----- ------------  ---------------
     6      1.727086  1 N  s                  2     -0.963742  1 N  s          
    17     -0.604325  2 H  s                 19     -0.604325  3 H  s          
    21     -0.604325  4 H  s                 23     -0.604325  5 H  s          
    16      0.576759  2 H  s                 18      0.576759  3 H  s          
    20      0.576759  4 H  s                 22      0.576759  5 H  s          
 
 Vector   17  Occ=0.000000D+00  E= 9.986277D-01  Symmetry=a1
              MO Center= -6.0D-16, -3.9D-15,  2.2D-15, r^2= 1.9D+00
   Bfn.  Coefficient  Atom+Function         Bfn.  Coefficient  Atom+Function  
  ----- ------------  ---------------      ----- ------------  ---------------
     6      4.660172  1 N  s                  2     -1.611075  1 N  s          
    17     -0.647112  2 H  s                 19     -0.647112  3 H  s          
    21     -0.647112  4 H  s                 23     -0.647112  5 H  s          
    16     -0.516048  2 H  s                 18     -0.516048  3 H  s          
    20     -0.516048  4 H  s                 22     -0.516048  5 H  s          
 
 Vector   18  Occ=0.000000D+00  E= 1.244490D+00  Symmetry=e
              MO Center=  3.1D-17,  6.4D-17,  2.2D-18, r^2= 6.1D-01
   Bfn.  Coefficient  Atom+Function         Bfn.  Coefficient  Atom+Function  
  ----- ------------  ---------------      ----- ------------  ---------------
    10      0.965169  1 N  dxx               13     -0.709160  1 N  dyy        
    15     -0.256009  1 N  dzz        
 
 Vector   19  Occ=0.000000D+00  E= 1.244490D+00  Symmetry=e
              MO Center=  2.6D-17,  3.6D-17, -5.4D-17, r^2= 6.1D-01
   Bfn.  Coefficient  Atom+Function         Bfn.  Coefficient  Atom+Function  
  ----- ------------  ---------------      ----- ------------  ---------------
    15      0.966674  1 N  dzz               13     -0.705047  1 N  dyy        
    10     -0.261627  1 N  dxx        
 
 Vector   20  Occ=0.000000D+00  E= 1.995544D+00  Symmetry=t2
              MO Center= -3.0D-02,  1.2D-02, -4.0D-02, r^2= 9.2D-01
   Bfn.  Coefficient  Atom+Function         Bfn.  Coefficient  Atom+Function  
  ----- ------------  ---------------      ----- ------------  ---------------
    12      1.850477  1 N  dxz               22     -0.873116  5 H  s          
    14     -0.734597  1 N  dyz                8      0.642576  1 N  py         
    20      0.566402  4 H  s                 11     -0.550793  1 N  dxy        
    18      0.464050  3 H  s                  7     -0.255088  1 N  px         
     9     -0.191262  1 N  pz                16     -0.157336  2 H  s          
 
 Vector   21  Occ=0.000000D+00  E= 1.995544D+00  Symmetry=t2
              MO Center= -1.1D-02, -5.7D-02,  1.6D-02, r^2= 9.2D-01
   Bfn.  Coefficient  Atom+Function         Bfn.  Coefficient  Atom+Function  
  ----- ------------  ---------------      ----- ------------  ---------------
    14      1.681794  1 N  dyz               11     -1.154970  1 N  dxy        
    18      0.880008  3 H  s                 20     -0.699666  4 H  s          
     7      0.584001  1 N  px                 9     -0.401062  1 N  pz         
    12      0.323857  1 N  dxz               16     -0.236854  2 H  s          
     8      0.112459  1 N  py                 3      0.058261  1 N  px         
 
 Vector   22  Occ=0.000000D+00  E= 1.995544D+00  Symmetry=t2
              MO Center=  4.1D-02,  4.5D-02,  2.4D-02, r^2= 9.2D-01
   Bfn.  Coefficient  Atom+Function         Bfn.  Coefficient  Atom+Function  
  ----- ------------  ---------------      ----- ------------  ---------------
    11      1.621709  1 N  dxy               16     -0.954764  2 H  s          
    14      0.948265  1 N  dyz               12      0.859140  1 N  dxz        
     9      0.563137  1 N  pz                22      0.476346  5 H  s          
    20      0.426716  4 H  s                  7      0.329284  1 N  px         
     8      0.298335  1 N  py                 5      0.056179  1 N  pz         
 
 Vector   23  Occ=0.000000D+00  E= 3.384953D+00  Symmetry=a1
              MO Center=  1.6D-16, -1.2D-17,  1.3D-16, r^2= 1.1D+00
   Bfn.  Coefficient  Atom+Function         Bfn.  Coefficient  Atom+Function  
  ----- ------------  ---------------      ----- ------------  ---------------
     6      3.750801  1 N  s                 10     -1.571818  1 N  dxx        
    13     -1.571818  1 N  dyy               15     -1.571818  1 N  dzz        
     2      1.040893  1 N  s                 17     -0.550280  2 H  s          
    19     -0.550280  3 H  s                 21     -0.550280  4 H  s          
    23     -0.550280  5 H  s                  1     -0.488261  1 N  s          
 

 center of mass
 --------------
 x =   0.00000000 y =   0.00000000 z =   0.00000000

 moments of inertia (a.u.)
 ------------------
           9.985078179353           0.000000000000           0.000000000000
           0.000000000000           9.985078179353           0.000000000000
           0.000000000000           0.000000000000           9.985078179353
 
     Multipole analysis of the density
     ---------------------------------
 
     L   x y z        total         alpha         beta         nuclear
     -   - - -        -----         -----         ----         -------
     0   0 0 0      1.000000     -5.000000     -5.000000     11.000000
 
     1   1 0 0     -0.000000     -0.000000     -0.000000      0.000000
     1   0 1 0     -0.000000     -0.000000     -0.000000      0.000000
     1   0 0 1      0.000000      0.000000      0.000000      0.000000
 
     2   2 0 0     -3.262314     -4.108045     -4.108045      4.953776
     2   1 1 0     -0.000000     -0.000000     -0.000000      0.000000
     2   1 0 1      0.000000      0.000000      0.000000      0.000000
     2   0 2 0     -3.262314     -4.108045     -4.108045      4.953776
     2   0 1 1     -0.000000     -0.000000     -0.000000      0.000000
     2   0 0 2     -3.262314     -4.108045     -4.108045      4.953776
 

 Parallel integral file used      19 records with       0 large values

 
            General Information
            -------------------
          SCF calculation type: DFT
          Wavefunction type:  closed shell.
          No. of atoms     :     5
          No. of electrons :    10
           Alpha electrons :     5
            Beta electrons :     5
          Charge           :     1
          Spin multiplicity:     1
          Use of symmetry is: on ; symmetry adaption is: on 
          Maximum number of iterations:  50
          AO basis - number of functions:    23
                     number of shells:    14
          Convergence on energy requested:  1.00D-06
          Convergence on density requested:  1.00D-05
          Convergence on gradient requested:  5.00D-04
 
              XC Information
              --------------
                         B3LYP Method XC Potential
                     Hartree-Fock (Exact) Exchange  0.200          
                        Slater Exchange Functional  0.800 local    
                    Becke 1988 Exchange Functional  0.720 non-local
              Lee-Yang-Parr Correlation Functional  0.810          
                  VWN I RPA Correlation Functional  0.190 local    
 
             Grid Information
             ----------------
          Grid used for XC integration:  xfine     
          Radial quadrature: Mura-Knowles        
          Angular quadrature: Lebedev. 
          Tag              B.-S. Rad. Rad. Pts. Rad. Cut. Ang. Pts.
          ---              ---------- --------- --------- ---------
          N                   0.65      100           6.0      1454
          H                   0.35      100           7.0      1202
          Grid pruning is: on 
          Number of quadrature shells:   200
          Spatial weights used:  Erf1
 
          Convergence Information
          -----------------------
          Convergence aids based upon iterative change in 
          total energy or number of iterations. 
          Levelshifting, if invoked, occurs when the 
          HOMO/LUMO gap drops below (HL_TOL):  1.00D-02
          DIIS, if invoked, will attempt to extrapolate 
          using up to (NFOCK): 10 stored Fock matrices.

                    Damping( 0%)  Levelshifting(0.5)       DIIS
                  --------------- ------------------- ---------------
          dE  on:    start            ASAP                start   
          dE off:    2 iters         50 iters            50 iters 

 
      Screening Tolerance Information
      -------------------------------
          Density screening/tol_rho:  1.00D-10
          AO Gaussian exp screening on grid/accAOfunc:  14
          CD Gaussian exp screening on grid/accCDfunc:  20
          XC Gaussian exp screening on grid/accXCfunc:  20
          Schwarz screening/accCoul:  1.00D-08

 
 
                            NWChem DFT Gradient Module
                            --------------------------
 
 
                         ammonium opt+freq (B3LYP/6-31g*)
 
 

  charge          =   1.00
  wavefunction    = closed shell

  Using symmetry


                         DFT ENERGY GRADIENTS

    atom               coordinates                        gradient
                 x          y          z           x          y          z
   1 N       0.000000   0.000000   0.000000    0.000000   0.000000   0.000000
   2 H       1.112854   1.112854   1.112854   -0.004576  -0.004576  -0.004576
   3 H      -1.112854  -1.112854   1.112854    0.004576   0.004576  -0.004576
   4 H       1.112854  -1.112854  -1.112854   -0.004576   0.004576   0.004576
   5 H      -1.112854   1.112854  -1.112854    0.004576  -0.004576   0.004576
 
                 ----------------------------------------
                 |  Time  |  1-e(secs)   |  2-e(secs)   |
                 ----------------------------------------
                 |  CPU   |       0.00   |       0.00   |
                 ----------------------------------------
                 |  WALL  |       0.00   |       0.00   |
                 ----------------------------------------
  no constraints, skipping   0.000000000000000E+000

@ Step       Energy      Delta E   Gmax     Grms     Xrms     Xmax   Walltime
@ ---- ---------------- -------- -------- -------- -------- -------- --------
@    0     -56.89360981  0.0D+00  0.00793  0.00501  0.00000  0.00000     11.1
                                                                    



                                Z-matrix (autoz)
                                -------- 

 Units are Angstrom for bonds and degrees for angles
 
      Type          Name      I     J     K     L     M      Value     Gradient
      ----------- --------  ----- ----- ----- ----- ----- ---------- ----------
    1 Stretch                  1     2                       1.02000   -0.00793
    2 Stretch                  1     3                       1.02000   -0.00793
    3 Stretch                  1     4                       1.02000   -0.00793
    4 Stretch                  1     5                       1.02000   -0.00793
    5 Bend                     2     1     3               109.47122   -0.00000
    6 Bend                     2     1     4               109.47122    0.00000
    7 Bend                     2     1     5               109.47122   -0.00000
    8 Bend                     3     1     4               109.47122    0.00000
    9 Bend                     3     1     5               109.47122    0.00000
   10 Bend                     4     1     5               109.47122   -0.00000
 
  no constraints, skipping   0.000000000000000E+000
  no constraints, skipping   0.000000000000000E+000
  no constraints, skipping   0.000000000000000E+000
 
                                 NWChem DFT Module
                                 -----------------
 
 
                         ammonium opt+freq (B3LYP/6-31g*)
 
 


 Summary of "ao basis" -> "ao basis" (cartesian)
 ------------------------------------------------------------------------------
       Tag                 Description            Shells   Functions and Types
 ---------------- ------------------------------  ------  ---------------------
 N                           6-31g*                  6       15   3s2p1d
 H                           6-31g*                  2        2   2s


      Symmetry analysis of basis
      --------------------------
 
        a1          6
        a2          0
        e           2
        t1          0
        t2         15
 
  Caching 1-el integrals 
 
            General Information
            -------------------
          SCF calculation type: DFT
          Wavefunction type:  closed shell.
          No. of atoms     :     5
          No. of electrons :    10
           Alpha electrons :     5
            Beta electrons :     5
          Charge           :     1
          Spin multiplicity:     1
          Use of symmetry is: on ; symmetry adaption is: on 
          Maximum number of iterations:  50
          AO basis - number of functions:    23
                     number of shells:    14
          Convergence on energy requested:  1.00D-06
          Convergence on density requested:  1.00D-05
          Convergence on gradient requested:  5.00D-04
 
              XC Information
              --------------
                         B3LYP Method XC Potential
                     Hartree-Fock (Exact) Exchange  0.200          
                        Slater Exchange Functional  0.800 local    
                    Becke 1988 Exchange Functional  0.720 non-local
              Lee-Yang-Parr Correlation Functional  0.810          
                  VWN I RPA Correlation Functional  0.190 local    
 
             Grid Information
             ----------------
          Grid used for XC integration:  xfine     
          Radial quadrature: Mura-Knowles        
          Angular quadrature: Lebedev. 
          Tag              B.-S. Rad. Rad. Pts. Rad. Cut. Ang. Pts.
          ---              ---------- --------- --------- ---------
          N                   0.65      100           6.0      1454
          H                   0.35      100           7.0      1202
          Grid pruning is: on 
          Number of quadrature shells:   200
          Spatial weights used:  Erf1
 
          Convergence Information
          -----------------------
          Convergence aids based upon iterative change in 
          total energy or number of iterations. 
          Levelshifting, if invoked, occurs when the 
          HOMO/LUMO gap drops below (HL_TOL):  1.00D-02
          DIIS, if invoked, will attempt to extrapolate 
          using up to (NFOCK): 10 stored Fock matrices.

                    Damping( 0%)  Levelshifting(0.5)       DIIS
                  --------------- ------------------- ---------------
          dE  on:    start            ASAP                start   
          dE off:    2 iters         50 iters            50 iters 

 
      Screening Tolerance Information
      -------------------------------
          Density screening/tol_rho:  1.00D-10
          AO Gaussian exp screening on grid/accAOfunc:  14
          CD Gaussian exp screening on grid/accCDfunc:  20
          XC Gaussian exp screening on grid/accXCfunc:  20
          Schwarz screening/accCoul:  1.00D-08


 Loading old vectors from job with title :

ammonium opt+freq (B3LYP/6-31g*)

 
      Symmetry analysis of molecular orbitals - initial
      -------------------------------------------------
 
  Numbering of irreducible representations: 
 
     1 a1          2 a2          3 e           4 t1          5 t2      
 
  Orbital symmetries:
 
     1 a1          2 a1          3 t2          4 t2          5 t2      
     6 a1          7 t2          8 t2          9 t2         10 t2      
    11 t2         12 t2         13 t2         14 t2         15 t2      
 
   Time after variat. SCF:     11.2
   Time prior to 1st pass:     11.2

 #quartets = 1.101D+03 #integrals = 8.767D+03 #direct =  0.0% #cached =100.0%


 Integral file          = ./ammonium.aoints.00
 Record size in doubles =  65536        No. of integs per rec  =  43688
 Max. records in memory =      3        Max. records in file   = 224883
 No. of bits per label  =      8        No. of bits per value  =     64


File balance: exchanges=     0  moved=     0  time=   0.0


 Grid_pts file          = ./ammonium.gridpts.00
 Record size in doubles =  12289        No. of grid_pts per rec  =   3070
 Max. records in memory =      7        Max. recs in file   =   1199284


           Memory utilization after 1st SCF pass: 
           Heap Space remaining (MW):       25.93            25929682
          Stack Space remaining (MW):       26.21            26214108

   convergence    iter        energy       DeltaE   RMS-Dens  Diis-err    time
 ---------------- ----- ----------------- --------- --------- ---------  ------
 d= 0,ls=0.0,diis     1    -56.8938023391 -7.32D+01  1.11D-03  6.81D-04    11.2
 d= 0,ls=0.0,diis     2    -56.8938075490 -5.21D-06  5.35D-04  8.22D-04    11.2
 d= 0,ls=0.0,diis     3    -56.8938892712 -8.17D-05  3.81D-05  5.61D-06    11.2
 d= 0,ls=0.0,diis     4    -56.8938898212 -5.50D-07  9.31D-07  1.30D-09    11.7


         Total DFT energy =      -56.893889821236
      One electron energy =     -104.752615667584
           Coulomb energy =       39.686199475353
    Exchange-Corr. energy =       -8.109437448821
 Nuclear repulsion energy =       16.281963819816

 Numeric. integr. density =        9.999999992717

     Total iterative time =      0.9s


 
                  Occupations of the irreducible representations
                  ----------------------------------------------
 
                     irrep           alpha         beta
                     --------     --------     --------
                     a1                2.0          2.0
                     a2                0.0          0.0
                     e                 0.0          0.0
                     t1                0.0          0.0
                     t2                3.0          3.0
 
 
                       DFT Final Molecular Orbital Analysis
                       ------------------------------------
 
 Vector    1  Occ=2.000000D+00  E=-1.471463D+01  Symmetry=a1
              MO Center=  1.1D-18,  1.5D-18, -2.6D-18, r^2= 2.0D-02
   Bfn.  Coefficient  Atom+Function         Bfn.  Coefficient  Atom+Function  
  ----- ------------  ---------------      ----- ------------  ---------------
     1      0.992575  1 N  s                  2      0.034925  1 N  s          
 
 Vector    2  Occ=2.000000D+00  E=-1.248448D+00  Symmetry=a1
              MO Center= -1.9D-18,  1.9D-18, -1.6D-17, r^2= 7.0D-01
   Bfn.  Coefficient  Atom+Function         Bfn.  Coefficient  Atom+Function  
  ----- ------------  ---------------      ----- ------------  ---------------
     6      0.448019  1 N  s                  2      0.443381  1 N  s          
     1     -0.206177  1 N  s                 16      0.117146  2 H  s          
    18      0.117146  3 H  s                 20      0.117146  4 H  s          
    22      0.117146  5 H  s          
 
 Vector    3  Occ=2.000000D+00  E=-8.265409D-01  Symmetry=t2
              MO Center= -2.0D-01,  1.2D-02, -1.3D-02, r^2= 8.8D-01
   Bfn.  Coefficient  Atom+Function         Bfn.  Coefficient  Atom+Function  
  ----- ------------  ---------------      ----- ------------  ---------------
     4      0.388095  1 N  py                 5     -0.357057  1 N  pz         
    22      0.236655  5 H  s                  8      0.223567  1 N  py         
    18     -0.223063  3 H  s                  9     -0.205687  1 N  pz         
    23      0.072978  5 H  s                 19     -0.068787  3 H  s          
    12      0.032049  1 N  dxz               11     -0.029486  1 N  dxy        
 
 Vector    4  Occ=2.000000D+00  E=-8.265409D-01  Symmetry=t2
              MO Center=  1.2D-01,  1.4D-01,  1.4D-01, r^2= 8.7D-01
   Bfn.  Coefficient  Atom+Function         Bfn.  Coefficient  Atom+Function  
  ----- ------------  ---------------      ----- ------------  ---------------
     3      0.330853  1 N  px                 5      0.293121  1 N  pz         
     4      0.288460  1 N  py                16      0.281461  2 H  s          
     7      0.190592  1 N  px                 9      0.168856  1 N  pz         
     8      0.166171  1 N  py                22     -0.103497  5 H  s          
    18     -0.100622  3 H  s                 17      0.086795  2 H  s          
 
 Vector    5  Occ=2.000000D+00  E=-8.265409D-01  Symmetry=t2
              MO Center=  7.9D-02, -1.5D-01, -1.3D-01, r^2= 8.8D-01
   Bfn.  Coefficient  Atom+Function         Bfn.  Coefficient  Atom+Function  
  ----- ------------  ---------------      ----- ------------  ---------------
     3      0.410663  1 N  px                20      0.270701  4 H  s          
     5     -0.255311  1 N  pz                 7      0.236567  1 N  px         
     4     -0.211579  1 N  py                 9     -0.147075  1 N  pz         
    18     -0.140168  3 H  s                  8     -0.121883  1 N  py         
    22     -0.113188  5 H  s                 21      0.083477  4 H  s          
 
 Vector    6  Occ=0.000000D+00  E=-2.108317D-01  Symmetry=a1
              MO Center= -2.2D-16,  1.9D-16, -2.6D-16, r^2= 3.2D+00
   Bfn.  Coefficient  Atom+Function         Bfn.  Coefficient  Atom+Function  
  ----- ------------  ---------------      ----- ------------  ---------------
     6      1.749984  1 N  s                 17     -0.696618  2 H  s          
    19     -0.696618  3 H  s                 21     -0.696618  4 H  s          
    23     -0.696618  5 H  s                  2      0.276531  1 N  s          
     1     -0.138983  1 N  s                 16     -0.082505  2 H  s          
    18     -0.082505  3 H  s                 20     -0.082505  4 H  s          
 
 Vector    7  Occ=0.000000D+00  E=-1.297342D-01  Symmetry=t2
              MO Center= -2.2D-01,  1.3D-01, -5.5D-01, r^2= 2.5D+00
   Bfn.  Coefficient  Atom+Function         Bfn.  Coefficient  Atom+Function  
  ----- ------------  ---------------      ----- ------------  ---------------
    23      1.405051  5 H  s                 21     -1.037748  4 H  s          
     8     -0.789152  1 N  py                19     -0.501060  3 H  s          
     7      0.463597  1 N  px                 4     -0.368435  1 N  py         
     3      0.216441  1 N  px                22      0.196359  5 H  s          
     9      0.188365  1 N  pz                20     -0.145028  4 H  s          
 
 Vector    8  Occ=0.000000D+00  E=-1.297342D-01  Symmetry=t2
              MO Center=  1.1D-01,  1.8D-01,  5.8D-01, r^2= 2.5D+00
   Bfn.  Coefficient  Atom+Function         Bfn.  Coefficient  Atom+Function  
  ----- ------------  ---------------      ----- ------------  ---------------
    17      1.387652  2 H  s                 19     -1.093821  3 H  s          
     7     -0.778988  1 N  px                 8     -0.493594  1 N  py         
    23     -0.425168  5 H  s                  3     -0.363690  1 N  px         
     4     -0.230446  1 N  py                16      0.193928  2 H  s          
    18     -0.152864  3 H  s                  9     -0.150687  1 N  pz         
 
 Vector    9  Occ=0.000000D+00  E=-1.297342D-01  Symmetry=t2
              MO Center=  1.1D-01, -3.1D-01, -2.8D-02, r^2= 2.8D+00
   Bfn.  Coefficient  Atom+Function         Bfn.  Coefficient  Atom+Function  
  ----- ------------  ---------------      ----- ------------  ---------------
    21      1.181465  4 H  s                 19     -1.021041  3 H  s          
     9      0.902760  1 N  pz                17     -0.739297  2 H  s          
    23      0.578873  5 H  s                  5      0.421476  1 N  pz         
     7     -0.226759  1 N  px                20      0.165113  4 H  s          
    18     -0.142693  3 H  s                  3     -0.105868  1 N  px         
 
 Vector   10  Occ=0.000000D+00  E= 3.407713D-01  Symmetry=t2
              MO Center= -1.9D-02, -5.3D-02, -6.8D-02, r^2= 1.7D+00
   Bfn.  Coefficient  Atom+Function         Bfn.  Coefficient  Atom+Function  
  ----- ------------  ---------------      ----- ------------  ---------------
     7      1.113352  1 N  px                16     -0.645737  2 H  s          
    18      0.427526  3 H  s                  3     -0.416319  1 N  px         
     8      0.390235  1 N  py                22      0.367186  5 H  s          
     9      0.305701  1 N  pz                14     -0.297907  1 N  dyz        
    20     -0.148976  4 H  s                  4     -0.145922  1 N  py         
 
 Vector   11  Occ=0.000000D+00  E= 3.407713D-01  Symmetry=t2
              MO Center=  3.7D-02, -1.1D-02,  6.3D-02, r^2= 1.7D+00
   Bfn.  Coefficient  Atom+Function         Bfn.  Coefficient  Atom+Function  
  ----- ------------  ---------------      ----- ------------  ---------------
     8      1.150197  1 N  py                22     -0.607463  5 H  s          
    20      0.461142  4 H  s                  4     -0.430097  1 N  py         
    18      0.359870  3 H  s                  7     -0.346865  1 N  px         
    12     -0.307766  1 N  dxz               16     -0.213550  2 H  s          
     9     -0.204988  1 N  pz                 3      0.129704  1 N  px         
 
 Vector   12  Occ=0.000000D+00  E= 3.407713D-01  Symmetry=t2
              MO Center= -1.8D-02,  6.5D-02,  5.6D-03, r^2= 1.7D+00
   Bfn.  Coefficient  Atom+Function         Bfn.  Coefficient  Atom+Function  
  ----- ------------  ---------------      ----- ------------  ---------------
     9      1.161816  1 N  pz                20      0.576831  4 H  s          
    18     -0.505267  3 H  s                  5     -0.434441  1 N  pz         
     7     -0.354149  1 N  px                16     -0.324039  2 H  s          
    11     -0.310874  1 N  dxy               22      0.252475  5 H  s          
     3      0.132428  1 N  px                 8      0.100258  1 N  py         
 
 Vector   13  Occ=0.000000D+00  E= 5.714153D-01  Symmetry=t2
              MO Center= -2.1D-01, -3.6D-01,  2.4D-01, r^2= 2.0D+00
   Bfn.  Coefficient  Atom+Function         Bfn.  Coefficient  Atom+Function  
  ----- ------------  ---------------      ----- ------------  ---------------
    19      1.656875  3 H  s                  7      0.970223  1 N  px         
     9     -0.864117  1 N  pz                21     -0.853976  4 H  s          
     3     -0.623252  1 N  px                18     -0.607117  3 H  s          
     8      0.586570  1 N  py                 5      0.555092  1 N  pz         
    17     -0.474069  2 H  s                  4     -0.376801  1 N  py         
 
 Vector   14  Occ=0.000000D+00  E= 5.714153D-01  Symmetry=t2
              MO Center=  1.0D-01, -4.8D-02, -3.3D-01, r^2= 2.1D+00
   Bfn.  Coefficient  Atom+Function         Bfn.  Coefficient  Atom+Function  
  ----- ------------  ---------------      ----- ------------  ---------------
    21      1.416326  4 H  s                  8      1.276959  1 N  py         
    23     -1.160193  5 H  s                  4     -0.820293  1 N  py         
     7     -0.605356  1 N  px                17     -0.587713  2 H  s          
    20     -0.518975  4 H  s                 22      0.425121  5 H  s          
     3      0.388869  1 N  px                19      0.331580  3 H  s          
 
 Vector   15  Occ=0.000000D+00  E= 5.714153D-01  Symmetry=t2
              MO Center=  1.1D-01,  4.0D-01,  8.6D-02, r^2= 2.0D+00
   Bfn.  Coefficient  Atom+Function         Bfn.  Coefficient  Atom+Function  
  ----- ------------  ---------------      ----- ------------  ---------------
    17      1.511750  2 H  s                 23     -1.183790  5 H  s          
     9     -1.118205  1 N  pz                 7     -0.851062  1 N  px         
     5      0.718313  1 N  pz                16     -0.553940  2 H  s          
     3      0.546705  1 N  px                22      0.433768  5 H  s          
    21     -0.346813  4 H  s                  8     -0.239596  1 N  py         
 
 Vector   16  Occ=0.000000D+00  E= 6.008680D-01  Symmetry=a1
              MO Center=  3.0D-14,  2.1D-14, -4.4D-14, r^2= 2.1D+00
   Bfn.  Coefficient  Atom+Function         Bfn.  Coefficient  Atom+Function  
  ----- ------------  ---------------      ----- ------------  ---------------
     6      1.680254  1 N  s                  2     -0.935139  1 N  s          
    17     -0.601131  2 H  s                 19     -0.601131  3 H  s          
    21     -0.601131  4 H  s                 23     -0.601131  5 H  s          
    16      0.578233  2 H  s                 18      0.578233  3 H  s          
    20      0.578233  4 H  s                 22      0.578233  5 H  s          
 
 Vector   17  Occ=0.000000D+00  E= 9.942536D-01  Symmetry=a1
              MO Center=  9.9D-16,  1.9D-15, -2.4D-15, r^2= 1.9D+00
   Bfn.  Coefficient  Atom+Function         Bfn.  Coefficient  Atom+Function  
  ----- ------------  ---------------      ----- ------------  ---------------
     6      4.616068  1 N  s                  2     -1.621773  1 N  s          
    17     -0.639620  2 H  s                 19     -0.639620  3 H  s          
    21     -0.639620  4 H  s                 23     -0.639620  5 H  s          
    16     -0.504588  2 H  s                 18     -0.504588  3 H  s          
    20     -0.504588  4 H  s                 22     -0.504588  5 H  s          
 
 Vector   18  Occ=0.000000D+00  E= 1.249219D+00  Symmetry=e
              MO Center=  1.9D-18, -1.7D-17, -5.0D-18, r^2= 6.1D-01
   Bfn.  Coefficient  Atom+Function         Bfn.  Coefficient  Atom+Function  
  ----- ------------  ---------------      ----- ------------  ---------------
    10      0.912612  1 N  dxx               13     -0.810361  1 N  dyy        
    15     -0.102251  1 N  dzz        
 
 Vector   19  Occ=0.000000D+00  E= 1.249219D+00  Symmetry=e
              MO Center=  4.8D-17, -2.1D-16, -2.8D-16, r^2= 6.1D-01
   Bfn.  Coefficient  Atom+Function         Bfn.  Coefficient  Atom+Function  
  ----- ------------  ---------------      ----- ------------  ---------------
    15      0.994759  1 N  dzz               13     -0.585931  1 N  dyy        
    10     -0.408827  1 N  dxx        
 
 Vector   20  Occ=0.000000D+00  E= 1.984007D+00  Symmetry=t2
              MO Center=  2.1D-03,  3.3D-02,  7.8D-03, r^2= 9.2D-01
   Bfn.  Coefficient  Atom+Function         Bfn.  Coefficient  Atom+Function  
  ----- ------------  ---------------      ----- ------------  ---------------
    14      1.976600  1 N  dyz               16     -0.726845  2 H  s          
     7      0.679641  1 N  px                22      0.656758  5 H  s          
    11      0.536320  1 N  dxy               18      0.431549  3 H  s          
    20     -0.361463  4 H  s                  9      0.184410  1 N  pz         
    12      0.127292  1 N  dxz                3      0.056982  1 N  px         
 
 Vector   21  Occ=0.000000D+00  E= 1.984007D+00  Symmetry=t2
              MO Center=  1.8D-02, -3.3D-02, -5.0D-03, r^2= 9.2D-01
   Bfn.  Coefficient  Atom+Function         Bfn.  Coefficient  Atom+Function  
  ----- ------------  ---------------      ----- ------------  ---------------
    11      1.955211  1 N  dxy               20      0.770290  4 H  s          
     9      0.672286  1 N  pz                18     -0.608745  3 H  s          
    14     -0.549411  1 N  dyz               16     -0.467786  2 H  s          
    22      0.306241  5 H  s                 12      0.293401  1 N  dxz        
     7     -0.188911  1 N  px                 8      0.100884  1 N  py         
 
 Vector   22  Occ=0.000000D+00  E= 1.984007D+00  Symmetry=t2
              MO Center= -2.0D-02,  4.4D-04, -2.8D-03, r^2= 9.2D-01
   Bfn.  Coefficient  Atom+Function         Bfn.  Coefficient  Atom+Function  
  ----- ------------  ---------------      ----- ------------  ---------------
    12      2.026944  1 N  dxz                8      0.696951  1 N  py         
    22     -0.657479  5 H  s                 18      0.632921  3 H  s          
    20      0.483106  4 H  s                 16     -0.458548  2 H  s          
    11     -0.316699  1 N  dxy                9     -0.108895  1 N  pz         
     4      0.058433  1 N  py                14     -0.044603  1 N  dyz        
 
 Vector   23  Occ=0.000000D+00  E= 3.379771D+00  Symmetry=a1
              MO Center= -1.1D-16,  1.4D-16, -2.4D-17, r^2= 1.1D+00
   Bfn.  Coefficient  Atom+Function         Bfn.  Coefficient  Atom+Function  
  ----- ------------  ---------------      ----- ------------  ---------------
     6      3.719651  1 N  s                 10     -1.567908  1 N  dxx        
    13     -1.567908  1 N  dyy               15     -1.567908  1 N  dzz        
     2      1.045655  1 N  s                 17     -0.543335  2 H  s          
    19     -0.543335  3 H  s                 21     -0.543335  4 H  s          
    23     -0.543335  5 H  s                  1     -0.487283  1 N  s          
 

 center of mass
 --------------
 x =   0.00000000 y =   0.00000000 z =   0.00000000

 moments of inertia (a.u.)
 ------------------
          10.170739881227           0.000000000000           0.000000000000
           0.000000000000          10.170739881227           0.000000000000
           0.000000000000           0.000000000000          10.170739881227
 
     Multipole analysis of the density
     ---------------------------------
 
     L   x y z        total         alpha         beta         nuclear
     -   - - -        -----         -----         ----         -------
     0   0 0 0      1.000000     -5.000000     -5.000000     11.000000
 
     1   1 0 0      0.000000      0.000000      0.000000      0.000000
     1   0 1 0      0.000000      0.000000      0.000000      0.000000
     1   0 0 1     -0.000000     -0.000000     -0.000000      0.000000
 
     2   2 0 0     -3.250421     -4.148154     -4.148154      5.045886
     2   1 1 0     -0.000000     -0.000000     -0.000000      0.000000
     2   1 0 1      0.000000      0.000000      0.000000      0.000000
     2   0 2 0     -3.250421     -4.148154     -4.148154      5.045886
     2   0 1 1      0.000000      0.000000      0.000000      0.000000
     2   0 0 2     -3.250421     -4.148154     -4.148154      5.045886
 

 Parallel integral file used      19 records with       0 large values

 Line search: 
     step= 1.00 grad=-5.7D-04 hess= 2.9D-04 energy=    -56.893890 mode=accept  
 new step= 1.00                   predicted energy=    -56.893890
  no constraints, skipping   0.000000000000000E+000
  no constraints, skipping   0.000000000000000E+000
  no constraints, skipping   0.000000000000000E+000

          --------
          Step   1
          --------
 
 
                         Geometry "geometry" -> "geometry"
                         ---------------------------------
 
 Output coordinates in angstroms (scale by  1.889725989 to convert to a.u.)
 
  No.       Tag          Charge          X              Y              Z
 ---- ---------------- ---------- -------------- -------------- --------------
    1 N                    7.0000     0.00000000     0.00000000     0.00000000
    2 H                    1.0000     0.59434673     0.59434673     0.59434673
    3 H                    1.0000    -0.59434673    -0.59434673     0.59434673
    4 H                    1.0000     0.59434673    -0.59434673    -0.59434673
    5 H                    1.0000    -0.59434673     0.59434673    -0.59434673
 
      Atomic Mass 
      ----------- 
 
      N                 14.003070
      H                  1.007825
 

 Effective nuclear repulsion energy (a.u.)      16.2819638198

            Nuclear Dipole moment (a.u.) 
            ----------------------------
        X                 Y               Z
 ---------------- ---------------- ----------------
     0.0000000000     0.0000000000     0.0000000000
 
      Symmetry information
      --------------------
 
 Group name              Td       
 Group number             42
 Group order              24
 No. of unique centers     2
 
      Symmetry unique atoms
 
     1    2
 
 
                                 NWChem DFT Module
                                 -----------------
 
 
                         ammonium opt+freq (B3LYP/6-31g*)
 
 


 Summary of "ao basis" -> "ao basis" (cartesian)
 ------------------------------------------------------------------------------
       Tag                 Description            Shells   Functions and Types
 ---------------- ------------------------------  ------  ---------------------
 N                           6-31g*                  6       15   3s2p1d
 H                           6-31g*                  2        2   2s


      Symmetry analysis of basis
      --------------------------
 
        a1          6
        a2          0
        e           2
        t1          0
        t2         15
 

  The DFT is already converged 

         Total DFT energy =    -56.893889821236

 
            General Information
            -------------------
          SCF calculation type: DFT
          Wavefunction type:  closed shell.
          No. of atoms     :     5
          No. of electrons :    10
           Alpha electrons :     5
            Beta electrons :     5
          Charge           :     1
          Spin multiplicity:     1
          Use of symmetry is: on ; symmetry adaption is: on 
          Maximum number of iterations:  50
          AO basis - number of functions:    23
                     number of shells:    14
          Convergence on energy requested:  1.00D-06
          Convergence on density requested:  1.00D-05
          Convergence on gradient requested:  5.00D-04
 
              XC Information
              --------------
                         B3LYP Method XC Potential
                     Hartree-Fock (Exact) Exchange  0.200          
                        Slater Exchange Functional  0.800 local    
                    Becke 1988 Exchange Functional  0.720 non-local
              Lee-Yang-Parr Correlation Functional  0.810          
                  VWN I RPA Correlation Functional  0.190 local    
 
             Grid Information
             ----------------
          Grid used for XC integration:  xfine     
          Radial quadrature: Mura-Knowles        
          Angular quadrature: Lebedev. 
          Tag              B.-S. Rad. Rad. Pts. Rad. Cut. Ang. Pts.
          ---              ---------- --------- --------- ---------
          N                   0.65      100           6.0      1454
          H                   0.35      100           7.0      1202
          Grid pruning is: on 
          Number of quadrature shells:   200
          Spatial weights used:  Erf1
 
          Convergence Information
          -----------------------
          Convergence aids based upon iterative change in 
          total energy or number of iterations. 
          Levelshifting, if invoked, occurs when the 
          HOMO/LUMO gap drops below (HL_TOL):  1.00D-02
          DIIS, if invoked, will attempt to extrapolate 
          using up to (NFOCK): 10 stored Fock matrices.

                    Damping( 0%)  Levelshifting(0.5)       DIIS
                  --------------- ------------------- ---------------
          dE  on:    start            ASAP                start   
          dE off:    2 iters         50 iters            50 iters 

 
      Screening Tolerance Information
      -------------------------------
          Density screening/tol_rho:  1.00D-10
          AO Gaussian exp screening on grid/accAOfunc:  14
          CD Gaussian exp screening on grid/accCDfunc:  20
          XC Gaussian exp screening on grid/accXCfunc:  20
          Schwarz screening/accCoul:  1.00D-08

 
 
                            NWChem DFT Gradient Module
                            --------------------------
 
 
                         ammonium opt+freq (B3LYP/6-31g*)
 
 

  charge          =   1.00
  wavefunction    = closed shell

  Using symmetry


                         DFT ENERGY GRADIENTS

    atom               coordinates                        gradient
                 x          y          z           x          y          z
   1 N       0.000000   0.000000   0.000000    0.000000   0.000000   0.000000
   2 H       1.123152   1.123152   1.123152   -0.000000  -0.000000  -0.000000
   3 H      -1.123152  -1.123152   1.123152    0.000000   0.000000  -0.000000
   4 H       1.123152  -1.123152  -1.123152   -0.000000   0.000000   0.000000
   5 H      -1.123152   1.123152  -1.123152    0.000000  -0.000000   0.000000
 
                 ----------------------------------------
                 |  Time  |  1-e(secs)   |  2-e(secs)   |
                 ----------------------------------------
                 |  CPU   |       0.00   |       0.00   |
                 ----------------------------------------
                 |  WALL  |       0.00   |       0.00   |
                 ----------------------------------------
  no constraints, skipping   0.000000000000000E+000

  Step       Energy      Delta E   Gmax     Grms     Xrms     Xmax   Walltime
  ---- ---------------- -------- -------- -------- -------- -------- --------
@    1     -56.89388982 -2.8D-04  0.00000  0.00000  0.00921  0.01030     12.8
                                     ok       ok                    



                                Z-matrix (autoz)
                                -------- 

 Units are Angstrom for bonds and degrees for angles
 
      Type          Name      I     J     K     L     M      Value     Gradient
      ----------- --------  ----- ----- ----- ----- ----- ---------- ----------
    1 Stretch                  1     2                       1.02944   -0.00000
    2 Stretch                  1     3                       1.02944   -0.00000
    3 Stretch                  1     4                       1.02944   -0.00000
    4 Stretch                  1     5                       1.02944   -0.00000
    5 Bend                     2     1     3               109.47122   -0.00000
    6 Bend                     2     1     4               109.47122   -0.00000
    7 Bend                     2     1     5               109.47122   -0.00000
    8 Bend                     3     1     4               109.47122    0.00000
    9 Bend                     3     1     5               109.47122   -0.00000
   10 Bend                     4     1     5               109.47122    0.00000
 

      ----------------------
      Optimization converged
      ----------------------


  Step       Energy      Delta E   Gmax     Grms     Xrms     Xmax   Walltime
  ---- ---------------- -------- -------- -------- -------- -------- --------
@    1     -56.89388982 -2.8D-04  0.00000  0.00000  0.00921  0.01030     12.8
                                     ok       ok                    



                                Z-matrix (autoz)
                                -------- 

 Units are Angstrom for bonds and degrees for angles
 
      Type          Name      I     J     K     L     M      Value     Gradient
      ----------- --------  ----- ----- ----- ----- ----- ---------- ----------
    1 Stretch                  1     2                       1.02944   -0.00000
    2 Stretch                  1     3                       1.02944   -0.00000
    3 Stretch                  1     4                       1.02944   -0.00000
    4 Stretch                  1     5                       1.02944   -0.00000
    5 Bend                     2     1     3               109.47122   -0.00000
    6 Bend                     2     1     4               109.47122   -0.00000
    7 Bend                     2     1     5               109.47122   -0.00000
    8 Bend                     3     1     4               109.47122    0.00000
    9 Bend                     3     1     5               109.47122   -0.00000
   10 Bend                     4     1     5               109.47122    0.00000
 
 
 
                         Geometry "geometry" -> "geometry"
                         ---------------------------------
 
 Output coordinates in angstroms (scale by  1.889725989 to convert to a.u.)
 
  No.       Tag          Charge          X              Y              Z
 ---- ---------------- ---------- -------------- -------------- --------------
    1 N                    7.0000     0.00000000     0.00000000     0.00000000
    2 H                    1.0000     0.59434673     0.59434673     0.59434673
    3 H                    1.0000    -0.59434673    -0.59434673     0.59434673
    4 H                    1.0000     0.59434673    -0.59434673    -0.59434673
    5 H                    1.0000    -0.59434673     0.59434673    -0.59434673
 
      Atomic Mass 
      ----------- 
 
      N                 14.003070
      H                  1.007825
 

 Effective nuclear repulsion energy (a.u.)      16.2819638198

            Nuclear Dipole moment (a.u.) 
            ----------------------------
        X                 Y               Z
 ---------------- ---------------- ----------------
     0.0000000000     0.0000000000     0.0000000000
 
      Symmetry information
      --------------------
 
 Group name              Td       
 Group number             42
 Group order              24
 No. of unique centers     2
 
      Symmetry unique atoms
 
     1    2
 
 
                Final and change from initial internal coordinates
                --------------------------------------------------
 


                                Z-matrix (autoz)
                                -------- 

 Units are Angstrom for bonds and degrees for angles
 
      Type          Name      I     J     K     L     M      Value       Change
      ----------- --------  ----- ----- ----- ----- ----- ---------- ----------
    1 Stretch                  1     2                       1.02944    0.00944
    2 Stretch                  1     3                       1.02944    0.00944
    3 Stretch                  1     4                       1.02944    0.00944
    4 Stretch                  1     5                       1.02944    0.00944
    5 Bend                     2     1     3               109.47122    0.00000
    6 Bend                     2     1     4               109.47122    0.00000
    7 Bend                     2     1     5               109.47122    0.00000
    8 Bend                     3     1     4               109.47122    0.00000
    9 Bend                     3     1     5               109.47122    0.00000
   10 Bend                     4     1     5               109.47122    0.00000
 
 ==============================================================================
                                internuclear distances
 ------------------------------------------------------------------------------
       center one      |      center two      | atomic units |  angstroms
 ------------------------------------------------------------------------------
    2 H                |   1 N                |     1.94536  |     1.02944
    3 H                |   1 N                |     1.94536  |     1.02944
    4 H                |   1 N                |     1.94536  |     1.02944
    5 H                |   1 N                |     1.94536  |     1.02944
 ------------------------------------------------------------------------------
                         number of included internuclear distances:          4
 ==============================================================================



 ==============================================================================
                                 internuclear angles
 ------------------------------------------------------------------------------
        center 1       |       center 2       |       center 3       |  degrees
 ------------------------------------------------------------------------------
    2 H                |   1 N                |   3 H                |   109.47
    2 H                |   1 N                |   4 H                |   109.47
    2 H                |   1 N                |   5 H                |   109.47
    3 H                |   1 N                |   4 H                |   109.47
    3 H                |   1 N                |   5 H                |   109.47
    4 H                |   1 N                |   5 H                |   109.47
 ------------------------------------------------------------------------------
                            number of included internuclear angles:          6
 ==============================================================================




 Task  times  cpu:       11.6s     wall:       12.6s
 
 
                                NWChem Input Module
                                -------------------
 
 
 
 
                   NWChem Nuclear Hessian and Frequency Analysis
                   ---------------------------------------------
 
 
 
                              NWChem Analytic Hessian
                              -----------------------
 
 
                                 NWChem DFT Module
                                 -----------------
 
 
                         ammonium opt+freq (B3LYP/6-31g*)
 
 


 Summary of "ao basis" -> "ao basis" (cartesian)
 ------------------------------------------------------------------------------
       Tag                 Description            Shells   Functions and Types
[...]
           5    -0.03894     0.09678     0.45036     0.31074     0.26232     0.28755
           6     0.18340    -0.40537    -0.12549    -0.38255     0.13795     0.28755
           7    -0.13296    -0.04010    -0.44094    -0.07181     0.40027    -0.28755
           8    -0.17478    -0.29228     0.31262    -0.31074    -0.26232    -0.28755
           9    -0.39939    -0.21320    -0.09352    -0.38255     0.13795     0.28755
          10    -0.44050    -0.04139    -0.13399     0.07181    -0.40027     0.28755
          11    -0.31418     0.29024     0.17539    -0.31074    -0.26232    -0.28755
          12    -0.09184    -0.21191    -0.40046     0.38255    -0.13795    -0.28755
          13    -0.30466     0.34768     0.00375    -0.07181     0.40027    -0.28755
          14    -0.45003    -0.09883     0.03765     0.31074     0.26232     0.28755
          15    -0.12414    -0.40666     0.18146     0.38255    -0.13795    -0.28755

                   13          14          15
 
 Frequency       3484.12     3484.12     3484.12
 
           1     0.04972    -0.03401     0.04945
           2     0.05539     0.00126    -0.05482
           3     0.02312     0.07012     0.02497
           4    -0.45191    -0.13573    -0.06564
           5    -0.45145    -0.13281    -0.07427
           6    -0.45412    -0.12711    -0.06767
           7    -0.28748     0.36300     0.11199
           8    -0.28701     0.36592     0.10337
           9     0.29351    -0.36001    -0.10583
          10     0.10647     0.37199    -0.27793
          11    -0.09778    -0.37470     0.27748
          12    -0.10045    -0.36900     0.28409
          13    -0.05796    -0.12674    -0.45556
          14     0.06665     0.12403     0.45512
          15    -0.06016    -0.11812    -0.45759



 ----------------------------------------------------------------------------
 Normal Eigenvalue ||         Derivative Dipole Moments (debye/angs)
  Mode   [cm**-1]  ||      [d/dqX]             [d/dqY]           [d/dqZ]
 ------ ---------- || ------------------ ------------------ -----------------
    1       -1.966 ||       0.325              -0.137            -0.249
    2       -1.909 ||       0.055              -0.344             0.147
    3       -1.823 ||       0.000              -0.000            -0.000
    4       -1.216 ||      -0.664               0.698            -0.457
    5        0.415 ||      -0.474               0.095             0.945
    6        1.164 ||       0.711               0.804             0.305
    7     1521.847 ||       1.337               1.494             0.660
    8     1521.847 ||      -0.940               0.006             1.890
    9     1521.847 ||      -1.336               1.491            -0.669
   10     1752.329 ||       0.000               0.000            -0.000
   11     1752.329 ||      -0.000               0.000             0.000
   12     3363.682 ||       0.000               0.000             0.000
   13     3484.117 ||      -1.384              -1.541            -0.643
   14     3484.117 ||       0.946              -0.035            -1.951
   15     3484.117 ||       1.376              -1.525             0.695
 ----------------------------------------------------------------------------



  
  
 ----------------------------------------------------------------------------
 Normal Eigenvalue ||                 Infra Red Intensities
  Mode   [cm**-1]  || [atomic units] [(debye/angs)**2] [(KM/mol)] [arbitrary]
 ------ ---------- || -------------- ----------------- ---------- -----------
    1       -1.966 ||    0.008069           0.186         7.866       0.892
    2       -1.909 ||    0.006197           0.143         6.041       0.685
    3       -1.823 ||    0.000000           0.000         0.000       0.000
    4       -1.216 ||    0.049258           1.136        48.020       5.443
    5        0.415 ||    0.048853           1.127        47.624       5.398
    6        1.164 ||    0.053973           1.245        52.615       5.964
    7     1521.847 ||    0.193160           4.456       188.302      21.344
    8     1521.847 ||    0.193160           4.456       188.302      21.344
    9     1521.847 ||    0.193160           4.456       188.302      21.344
   10     1752.329 ||    0.000000           0.000         0.000       0.000
   11     1752.329 ||    0.000000           0.000         0.000       0.000
   12     3363.682 ||    0.000000           0.000         0.000       0.000
   13     3484.117 ||    0.203881           4.704       198.753      22.529
   14     3484.117 ||    0.203881           4.704       198.753      22.529
   15     3484.117 ||    0.203881           4.704       198.753      22.529
 ----------------------------------------------------------------------------



 
 
        Vibrational analysis via the FX method 
  --- with translations and rotations projected out ---
  --- via the Eckart algorithm                      ---
 Projected Nuclear Hessian trans-rot subspace norm:4.2461D-33
                         (should be close to zero!) 

          --------------------------------------------------------
          MASS-WEIGHTED PROJECTED HESSIAN (Hartree/Bohr/Bohr/Kamu)
          --------------------------------------------------------


               1            2            3            4            5            6            7            8            9           10
   ----- ----- ----- ----- -----
    1    5.12143D+01
    2    3.69709D-06  5.12143D+01
    3    1.19574D-06  2.44650D-06  5.12143D+01
    4   -4.77255D+01 -3.01699D+01 -3.01699D+01  1.79003D+02
    5   -3.01699D+01 -4.77255D+01 -3.01699D+01  1.21967D+02  1.79003D+02
    6   -3.01699D+01 -3.01699D+01 -4.77255D+01  1.21967D+02  1.21967D+02  1.79003D+02
    7   -4.77255D+01 -3.01699D+01  3.01699D+01 -1.05744D+01 -9.50828D+00  1.37425D+01  1.79003D+02
    8   -3.01699D+01 -4.77255D+01  3.01699D+01 -9.50828D+00 -1.05744D+01  1.37425D+01  1.21967D+02  1.79003D+02
    9    3.01699D+01  3.01699D+01 -4.77255D+01 -1.37424D+01 -1.37424D+01  2.00431D+01 -1.21967D+02 -1.21967D+02  1.79003D+02
   10   -4.77255D+01  3.01699D+01  3.01699D+01  2.00431D+01 -1.37424D+01 -1.37424D+01 -1.05744D+01  1.37424D+01  9.50826D+00  1.79003D+02
   11    3.01699D+01 -4.77255D+01 -3.01699D+01  1.37425D+01 -1.05743D+01 -9.50827D+00 -1.37424D+01  2.00430D+01  1.37424D+01 -1.21967D+02
   12    3.01699D+01 -3.01699D+01 -4.77255D+01  1.37425D+01 -9.50826D+00 -1.05744D+01  9.50825D+00 -1.37425D+01 -1.05744D+01 -1.21967D+02
   13   -4.77255D+01  3.01699D+01 -3.01699D+01 -1.05744D+01  1.37425D+01 -9.50825D+00  2.00430D+01 -1.37424D+01  1.37424D+01 -1.05744D+01
   14    3.01699D+01 -4.77255D+01  3.01699D+01 -1.37424D+01  2.00430D+01 -1.37424D+01  1.37425D+01 -1.05744D+01  9.50825D+00  9.50823D+00
   15   -3.01699D+01  3.01699D+01 -4.77255D+01 -9.50825D+00  1.37425D+01 -1.05744D+01 -1.37425D+01  9.50824D+00 -1.05743D+01  1.37424D+01


              11           12           13           14           15
   ----- ----- ----- ----- -----
   11    1.79003D+02
   12    1.21967D+02  1.79003D+02
   13    9.50823D+00 -1.37425D+01  1.79003D+02
   14   -1.05744D+01  1.37425D+01 -1.21967D+02  1.79003D+02
   15   -1.37424D+01  2.00430D+01  1.21967D+02 -1.21967D+02  1.79003D+02

 center of mass
 --------------
 x =   0.00000000 y =   0.00000000 z =   0.00000000

 moments of inertia (a.u.)
 ------------------
          10.170739881227           0.000000000000           0.000000000000
           0.000000000000          10.170739881227           0.000000000000
           0.000000000000           0.000000000000          10.170739881227

 Rotational Constants
 --------------------
 A=   5.918957 cm-1  (  8.515869 K)
 B=   5.918957 cm-1  (  8.515869 K)
 C=   5.918957 cm-1  (  8.515869 K)


 Temperature                      =   298.15K
 frequency scaling parameter      =   1.0000

 Zero-Point correction to Energy  =   31.273 kcal/mol  (  0.049837 au)
 Thermal correction to Energy     =   33.060 kcal/mol  (  0.052685 au)
 Thermal correction to Enthalpy   =   33.652 kcal/mol  (  0.053629 au)

 Total Entropy                    =   44.412 cal/mol-K
   - Translational                =   34.597 cal/mol-K (mol. weight =  18.0344)
   - Rotational                   =    9.775 cal/mol-K (symmetry #  =       12)
   - Vibrational                  =    0.040 cal/mol-K

 Cv (constant volume heat capacity) =    6.228 cal/mol-K
   - Translational                  =    2.979 cal/mol-K
   - Rotational                     =    2.979 cal/mol-K
   - Vibrational                    =    0.269 cal/mol-K



          -------------------------------------------------
          NORMAL MODE EIGENVECTORS IN CARTESIAN COORDINATES
          -------------------------------------------------
             (Projected Frequencies expressed in cm-1)

                    1           2           3           4           5           6
 
 P.Frequency       -0.00       -0.00       -0.00        0.00        0.00        0.00
 
           1    -0.00140    -0.00593     0.23530    -0.00028    -0.00082    -0.00675
           2     0.02178    -0.01645     0.00017     0.23372    -0.00554     0.00684
           3    -0.00713     0.00859     0.00028    -0.00520    -0.23291     0.03239
           4     0.33263     0.21823     0.25136    -0.02320     0.03805     0.28296
           5    -0.29147     0.25496    -0.00260     0.28946    -0.02471    -0.26296
           6    -0.02792    -0.48698    -0.01300    -0.03801    -0.25261     0.01248
           7    -0.36423     0.24539     0.24601     0.04594     0.04916     0.21349
           8     0.40540     0.22780     0.00275     0.22032    -0.03582    -0.19349
           9     0.01367     0.50416     0.01357     0.02762    -0.21321     0.05230
          10    -0.33544    -0.23009     0.21924     0.02264    -0.03969    -0.29647
          11    -0.36184    -0.26070    -0.00240     0.24713     0.02475     0.20717
          12     0.04245     0.02868    -0.01320     0.00431    -0.30207    -0.45765
          13     0.36142    -0.25724     0.22459    -0.04651    -0.05081    -0.22699
          14     0.33502    -0.28786     0.00295     0.17799     0.01363     0.27664
          15    -0.05671    -0.01150     0.01377    -0.01471    -0.16376     0.52243

                    7           8           9          10          11          12
 
 P.Frequency     1521.85     1521.85     1521.85     1752.33     1752.33     3363.68
 
           1     0.06359    -0.04310     0.06315    -0.00000    -0.00000    -0.00000
           2     0.07075     0.00205    -0.06985    -0.00000     0.00000     0.00000
           3     0.02897     0.08959     0.03197     0.00000     0.00000    -0.00000
           4    -0.00301     0.34991    -0.30209     0.01875     0.40623     0.28755
           5    -0.04355     0.09447     0.45043     0.34243    -0.21935     0.28755
           6     0.19287    -0.40089    -0.12569    -0.36118    -0.18688     0.28755
           7    -0.12959    -0.04156    -0.44180    -0.01875    -0.40623    -0.28755
           8    -0.17013    -0.29701     0.31073    -0.34243     0.21935    -0.28755
           9    -0.39413    -0.22153    -0.09643    -0.36118    -0.18688     0.28755
          10    -0.43874    -0.05052    -0.13661     0.01875     0.40623     0.28755
          11    -0.32140     0.28278     0.17450    -0.34243     0.21935    -0.28755
          12    -0.08498    -0.21258    -0.40162     0.36118     0.18688    -0.28755
          13    -0.31216     0.34096     0.00310    -0.01875    -0.40623    -0.28755
          14    -0.44798    -0.10870     0.03480     0.34243    -0.21935     0.28755
          15    -0.11628    -0.40984     0.17950     0.36118     0.18688    -0.28755

                   13          14          15
 
 P.Frequency     3484.12     3484.12     3484.12
 
           1     0.04957    -0.03432     0.04940
           2     0.05529     0.00080    -0.05493
           3     0.02368     0.06997     0.02486
           4    -0.45303    -0.13246    -0.06464
           5    -0.45255    -0.12956    -0.07327
           6    -0.45517    -0.12384    -0.06667
           7    -0.28459     0.36522     0.11215
           8    -0.28412     0.36813     0.10352
           9     0.29065    -0.36227    -0.10601
          10     0.10868     0.37091    -0.27852
          11    -0.10001    -0.37368     0.27807
          12    -0.10262    -0.36796     0.28467
          13    -0.05976    -0.12678    -0.45532
          14     0.06843     0.12401     0.45486
          15    -0.06190    -0.11816    -0.45735



 ----------------------------------------------------------------------------
 Normal Eigenvalue ||    Projected Derivative Dipole Moments (debye/angs)
  Mode   [cm**-1]  ||      [d/dqX]             [d/dqY]           [d/dqZ]
 ------ ---------- || ------------------ ------------------ -----------------
    1       -0.000 ||      -0.007               0.105            -0.034
    2       -0.000 ||      -0.028              -0.079             0.041
    3       -0.000 ||       1.130               0.001             0.001
    4        0.000 ||      -0.001               1.123            -0.025
    5        0.000 ||       0.004               0.027             1.119
    6        0.000 ||      -0.032               0.033             0.156
    7     1521.848 ||       1.350               1.502             0.615
    8     1521.849 ||      -0.915               0.043             1.902
    9     1521.850 ||      -1.341               1.483            -0.679
   10     1752.329 ||       0.000               0.000            -0.000
   11     1752.329 ||       0.000              -0.000            -0.000
   12     3363.682 ||       0.000              -0.000             0.000
   13     3484.115 ||      -1.379              -1.539            -0.659
   14     3484.116 ||       0.955              -0.022            -1.947
   15     3484.116 ||       1.375              -1.528             0.692
 ----------------------------------------------------------------------------



  
  
 ----------------------------------------------------------------------------
 Normal Eigenvalue ||           Projected Infra Red Intensities
  Mode   [cm**-1]  || [atomic units] [(debye/angs)**2] [(KM/mol)] [arbitrary]
 ------ ---------- || -------------- ----------------- ---------- -----------
    1       -0.000 ||    0.000527           0.012         0.514       0.058
    2       -0.000 ||    0.000380           0.009         0.370       0.042
    3       -0.000 ||    0.055366           1.277        53.974       6.118
    4        0.000 ||    0.054654           1.261        53.280       6.039
    5        0.000 ||    0.054280           1.252        52.915       5.998
    6        0.000 ||    0.001142           0.026         1.113       0.126
    7     1521.848 ||    0.193160           4.456       188.302      21.344
    8     1521.849 ||    0.193161           4.456       188.303      21.344
    9     1521.850 ||    0.193161           4.456       188.303      21.344
   10     1752.329 ||    0.000000           0.000         0.000       0.000
   11     1752.329 ||    0.000000           0.000         0.000       0.000
   12     3363.682 ||    0.000000           0.000         0.000       0.000
   13     3484.115 ||    0.203881           4.704       198.753      22.529
   14     3484.116 ||    0.203881           4.704       198.753      22.529
   15     3484.116 ||    0.203881           4.704       198.753      22.529
 ----------------------------------------------------------------------------



 vib:animation  F

 Task  times  cpu:       26.4s     wall:       28.3s
 
 
                                NWChem Input Module
                                -------------------
 
 
 Summary of allocated global arrays
-----------------------------------
  No active global arrays


MA_summarize_allocated_blocks: starting scan ...
MA_summarize_allocated_blocks: scan completed: 0 heap blocks, 0 stack blocks
MA usage statistics:

	allocation statistics:
					      heap	     stack
					      ----	     -----
	current number of blocks	         0	         0
	maximum number of blocks	        26	        57
	current total bytes		         0	         0
	maximum total bytes		   3063184	  89019096
	maximum total K-bytes		      3064	     89020
	maximum total M-bytes		         4	        90
 
 
                                     CITATION
                                     --------
                Please cite the following reference when publishing
                           results obtained with NWChem:
 
          E. Apra, E. J. Bylaska, W. A. de Jong, N. Govind, K. Kowalski,
       T. P. Straatsma, M. Valiev, H. J. J. van Dam, Y. Alexeev, J. Anchell,
       V. Anisimov, F. W. Aquino, R. Atta-Fynn, J. Autschbach, N. P. Bauman,
     J. C. Becca, D. E. Bernholdt, K. Bhaskaran-Nair, S. Bogatko, P. Borowski,
         J. Boschen, J. Brabec, A. Bruner, E. Cauet, Y. Chen, G. N. Chuev,
      C. J. Cramer, J. Daily, M. J. O. Deegan, T. H. Dunning Jr., M. Dupuis,
   K. G. Dyall, G. I. Fann, S. A. Fischer, A. Fonari, H. Fruchtl, L. Gagliardi,
      J. Garza, N. Gawande, S. Ghosh, K. Glaesemann, A. W. Gotz, J. Hammond,
       V. Helms, E. D. Hermes, K. Hirao, S. Hirata, M. Jacquelin, L. Jensen,
   B. G. Johnson, H. Jonsson, R. A. Kendall, M. Klemm, R. Kobayashi, V. Konkov,
      S. Krishnamoorthy, M. Krishnan, Z. Lin, R. D. Lins, R. J. Littlefield,
      A. J. Logsdail, K. Lopata, W. Ma, A. V. Marenich, J. Martin del Campo,
   D. Mejia-Rodriguez, J. E. Moore, J. M. Mullin, T. Nakajima, D. R. Nascimento,
    J. A. Nichols, P. J. Nichols, J. Nieplocha, A. Otero-de-la-Roza, B. Palmer,
    A. Panyala, T. Pirojsirikul, B. Peng, R. Peverati, J. Pittner, L. Pollack,
   R. M. Richard, P. Sadayappan, G. C. Schatz, W. A. Shelton, D. W. Silverstein,
   D. M. A. Smith, T. A. Soares, D. Song, M. Swart, H. L. Taylor, G. S. Thomas,
            V. Tipparaju, D. G. Truhlar, K. Tsemekhman, T. Van Voorhis,
      A. Vazquez-Mayagoitia, P. Verma, O. Villa, A. Vishnu, K. D. Vogiatzis,
        D. Wang, J. H. Weare, M. J. Williamson, T. L. Windus, K. Wolinski,
        A. T. Wong, Q. Wu, C. Yang, Q. Yu, M. Zacharias, Z. Zhang, Y. Zhao,
                                and R. J. Harrison
                        "NWChem: Past, present, and future
                         J. Chem. Phys. 152, 184102 (2020)
                               doi:10.1063/5.0004997
 
                                      AUTHORS
                                      -------
  E. Apra, E. J. Bylaska, N. Govind, K. Kowalski, M. Valiev, D. Mejia-Rodriguez,
       A. Kunitsa, N. P. Bauman, A. Panyala, W. A. de Jong, T. P. Straatsma,
   H. J. J. van Dam, D. Wang, T. L. Windus, J. Hammond, J. Autschbach, A. Woods,
    K. Bhaskaran-Nair, J. Brabec, K. Lopata, S. A. Fischer, S. Krishnamoorthy,
     M. Jacquelin, W. Ma, M. Klemm, O. Villa, Y. Chen, V. Anisimov, F. Aquino,
     S. Hirata, M. T. Hackler, E. Hermes, L. Jensen, J. E. Moore, J. C. Becca,
      V. Konjkov, T. Risthaus, M. Malagoli, A. Marenich, A. Otero-de-la-Roza,
        J. Mullin, P. Nichols, R. Peverati, J. Pittner, Y. Zhao, P.-D. Fan,
        A. Fonari, M. J. Williamson, R. J. Harrison, J. R. Rehr, M. Dupuis,
     D. Silverstein, D. M. A. Smith, J. Nieplocha, V. Tipparaju, M. Krishnan,
     B. E. Van Kuiken, A. Vazquez-Mayagoitia, M. Swart, Q. Wu, T. Van Voorhis,
     A. A. Auer, M. Nooijen, L. D. Crosby, E. Brown, G. Cisneros, G. I. Fann,
   H. Fruchtl, J. Garza, K. Hirao, R. A. Kendall, J. A. Nichols, K. Tsemekhman,
    K. Wolinski, J. Anchell, D. E. Bernholdt, P. Borowski, T. Clark, D. Clerc,
   H. Dachsel, M. J. O. Deegan, K. Dyall, D. Elwood, E. Glendening, M. Gutowski,
   A. C. Hess, J. Jaffe, B. G. Johnson, J. Ju, R. Kobayashi, R. Kutteh, Z. Lin,
   R. Littlefield, X. Long, B. Meng, T. Nakajima, S. Niu, L. Pollack, M. Rosing,
   K. Glaesemann, G. Sandrone, M. Stave, H. Taylor, G. Thomas, J. H. van Lenthe,
                               A. T. Wong, Z. Zhang.

 Total times  cpu:       38.1s     wall:       41.0s
