 argument  1 = argon_cube.nw
 


============================== echo of input deck ==============================
start argon_cube
title "argon_cube opt+freq (B3LYP/6-31g*)"
echo

geometry units angstrom
  Ar  0.000000  0.000000  0.000000
  Ar  0.000000  0.000000  3.800000
  Ar  0.000000  3.800000  0.000000
  Ar  0.000000  3.800000  3.800000
  Ar  3.800000  0.000000  0.000000
  Ar  3.800000  0.000000  3.800000
  Ar  3.800000  3.800000  0.000000
  Ar  3.800000  3.800000  3.800000
end

charge 0

basis
  * library 6-31g*
end

dft
  xc b3lyp
  grid xfine
end

driver
  maxiter 200
end

task dft optimize
task dft freq
================================================================================


                                         
                                         
 
 
             Northwest Computational Chemistry Package (NWChem) 7.2.2
             --------------------------------------------------------
 
 
                    Environmental Molecular Sciences Laboratory
                       Pacific Northwest National Laboratory
                                Richland, WA 99352
 
                              Copyright (c) 1994-2022
                       Pacific Northwest National Laboratory
                            Battelle Memorial Institute
 
             NWChem is an open-source computational chemistry package
                        distributed under the terms of the
                      Educational Community License (ECL) 2.0
             A copy of the license is included with this distribution
                              in the LICENSE.TXT file
 
                                  ACKNOWLEDGMENT
                                  --------------

            This software and its documentation were developed at the
            EMSL at Pacific Northwest National Laboratory, a multiprogram
            national laboratory, operated for the U.S. Department of Energy
            by Battelle under Contract Number DE-AC05-76RL01830. Support
            for this work was provided by the Department of Energy Office
            of Biological and Environmental Research, Office of Basic
            Energy Sciences, and the Office of Advanced Scientific Computing.


           Job information
           ---------------

    hostname        = charliebox
    program         = /apps/nwchem/bin/nwchem
    date            = Sun Oct 19 14:37:50 2025

    compiled        = Tue_Apr_23_01:04:59_2024
    source          = /apps/nwchem-7.2.2-release
    nwchem branch   = 7.2.2
    nwchem revision = N/A
    ga revision     = 5.8.0
    use scalapack   = T
    input           = argon_cube.nw
    prefix          = argon_cube.
    data base       = ./argon_cube.db
    status          = startup
    nproc           =       19
    time left       =     -1s



           Memory information
           ------------------

    heap     =   26214394 doubles =    200.0 Mbytes
    stack    =   26214399 doubles =    200.0 Mbytes
    global   =   52428800 doubles =    400.0 Mbytes (distinct from heap & stack)
    total    =  104857593 doubles =    800.0 Mbytes
    verify   = yes
    hardfail = no 


           Directory information
           ---------------------
 
  0 permanent = .
  0 scratch   = .
 
 
 
 
                                NWChem Input Module
                                -------------------
 
 
                        argon_cube opt+freq (B3LYP/6-31g*)
                        ----------------------------------

 Scaling coordinates for geometry "geometry" by  1.889725989
 (inverse scale =  0.529177249)

  WARNING: autosym failed! 

          ------
          auto-z
          ------
     1 autoz failed with cvr_scaling = 1.2 changing to 1.3
     2 autoz failed with cvr_scaling = 1.3 changing to 1.4
     3 autoz failed with cvr_scaling = 1.4 changing to 1.5
     4 autoz failed with cvr_scaling = 1.5 changing to 1.6
     5 autoz failed with cvr_scaling = 1.6 changing to 1.7

 AUTOZ failed to generate good internal coordinates.
 Cartesian coordinates will be used in optimizations.

 
 
                             Geometry "geometry" -> ""
                             -------------------------
 
 Output coordinates in angstroms (scale by  1.889725989 to convert to a.u.)
 
  No.       Tag          Charge          X              Y              Z
 ---- ---------------- ---------- -------------- -------------- --------------
    1 Ar                  18.0000    -1.90000000    -1.90000000    -1.90000000
    2 Ar                  18.0000    -1.90000000    -1.90000000     1.90000000
    3 Ar                  18.0000    -1.90000000     1.90000000    -1.90000000
    4 Ar                  18.0000    -1.90000000     1.90000000     1.90000000
    5 Ar                  18.0000     1.90000000    -1.90000000    -1.90000000
    6 Ar                  18.0000     1.90000000    -1.90000000     1.90000000
    7 Ar                  18.0000     1.90000000     1.90000000    -1.90000000
    8 Ar                  18.0000     1.90000000     1.90000000     1.90000000
 
      Atomic Mass 
      ----------- 
 
      Ar                39.962400
 

 Effective nuclear repulsion energy (a.u.)    1028.4806478426

            Nuclear Dipole moment (a.u.) 
            ----------------------------
        X                 Y               Z
 ---------------- ---------------- ----------------
     0.0000000000     0.0000000000     0.0000000000
 
 
            XYZ format geometry
            -------------------
     8
 geometry
 Ar                   -1.90000000    -1.90000000    -1.90000000
 Ar                   -1.90000000    -1.90000000     1.90000000
 Ar                   -1.90000000     1.90000000    -1.90000000
 Ar                   -1.90000000     1.90000000     1.90000000
 Ar                    1.90000000    -1.90000000    -1.90000000
 Ar                    1.90000000    -1.90000000     1.90000000
 Ar                    1.90000000     1.90000000    -1.90000000
 Ar                    1.90000000     1.90000000     1.90000000
 
  library name resolved from: environment
  library file name is: </apps/nwchem/data/libraries/>
  


 Summary of "ao basis" -> "" (cartesian)
 ------------------------------------------------------------------------------
       Tag                 Description            Shells   Functions and Types
 ---------------- ------------------------------  ------  ---------------------
 *                           6-31g*                   on all atoms 


 
 
                           NWChem Geometry Optimization
                           ----------------------------
 
 
 
 
                        argon_cube opt+freq (B3LYP/6-31g*)
 
 
 maximum gradient threshold         (gmax) =   0.000450
 rms gradient threshold             (grms) =   0.000300
 maximum cartesian step threshold   (xmax) =   0.001800
 rms cartesian step threshold       (xrms) =   0.001200
 fixed trust radius                (trust) =   0.300000
 maximum step size to saddle      (sadstp) =   0.100000
 energy precision                  (eprec) =   5.0D-06
 maximum number of steps          (nptopt) =  200
 initial hessian option           (inhess) =    0
 line search option               (linopt) =    1
 hessian update option            (modupd) =    1
 saddle point option              (modsad) =    0
 initial eigen-mode to follow     (moddir) =    0
 initial variable to follow       (vardir) =    0
 follow first negative mode     (firstneg) =    T
 apply conjugacy                    (opcg) =    F
 source of zmatrix                         =           


          -------------------
          Energy Minimization
          -------------------

 
 Using old Hessian from previous optimization

          --------
          Step   0
          --------
 
 
                         Geometry "geometry" -> "geometry"
                         ---------------------------------
 
 Output coordinates in angstroms (scale by  1.889725989 to convert to a.u.)
 
  No.       Tag          Charge          X              Y              Z
 ---- ---------------- ---------- -------------- -------------- --------------
    1 Ar                  18.0000    -1.90000000    -1.90000000    -1.90000000
    2 Ar                  18.0000    -1.90000000    -1.90000000     1.90000000
    3 Ar                  18.0000    -1.90000000     1.90000000    -1.90000000
    4 Ar                  18.0000    -1.90000000     1.90000000     1.90000000
    5 Ar                  18.0000     1.90000000    -1.90000000    -1.90000000
    6 Ar                  18.0000     1.90000000    -1.90000000     1.90000000
    7 Ar                  18.0000     1.90000000     1.90000000    -1.90000000
    8 Ar                  18.0000     1.90000000     1.90000000     1.90000000
 
      Atomic Mass 
      ----------- 
 
      Ar                39.962400
 

 Effective nuclear repulsion energy (a.u.)    1028.4806478426

            Nuclear Dipole moment (a.u.) 
            ----------------------------
        X                 Y               Z
 ---------------- ---------------- ----------------
     0.0000000000     0.0000000000     0.0000000000
 
 
                                 NWChem DFT Module
                                 -----------------
 
 
                        argon_cube opt+freq (B3LYP/6-31g*)
 
 
                      Basis "ao basis" -> "ao basis" (cartesian)
                      -----
  Ar (Argon)
  ----------
            Exponent  Coefficients 
       -------------- ---------------------------------------------------------
  1 S  2.83483000E+04  0.001825
  1 S  4.25762000E+03  0.013969
  1 S  9.69857000E+02  0.068707
  1 S  2.73263000E+02  0.236204
  1 S  8.73695000E+01  0.482214
  1 S  2.96867000E+01  0.342043
 
  2 S  5.75891000E+02 -0.002160
  2 S  1.36816000E+02 -0.029077
  2 S  4.38098000E+01 -0.110827
  2 S  1.62094000E+01  0.027700
  2 S  6.46084000E+00  0.577613
  2 S  2.65114000E+00  0.488688
 
  3 P  5.75891000E+02  0.003807
  3 P  1.36816000E+02  0.029230
  3 P  4.38098000E+01  0.126467
  3 P  1.62094000E+01  0.323510
  3 P  6.46084000E+00  0.454896
  3 P  2.65114000E+00  0.256630
 
  4 S  3.86028000E+00 -0.255592
  4 S  1.41373000E+00  0.037807
  4 S  5.16646000E-01  1.080560
 
  5 P  3.86028000E+00 -0.015920
  5 P  1.41373000E+00  0.324646
  5 P  5.16646000E-01  0.743990
 
  6 S  1.73888000E-01  1.000000
 
  7 P  1.73888000E-01  1.000000
 
  8 D  8.50000000E-01  1.000000
 


 Summary of "ao basis" -> "ao basis" (cartesian)
 ------------------------------------------------------------------------------
       Tag                 Description            Shells   Functions and Types
 ---------------- ------------------------------  ------  ---------------------
 Ar                          6-31g*                  8       19   4s3p1d




 Summary of "ao basis" -> "ao basis" (cartesian)
 ------------------------------------------------------------------------------
       Tag                 Description            Shells   Functions and Types
 ---------------- ------------------------------  ------  ---------------------
 Ar                          6-31g*                  8       19   4s3p1d


  Caching 1-el integrals 
 
            General Information
            -------------------
          SCF calculation type: DFT
          Wavefunction type:  closed shell.
          No. of atoms     :     8
          No. of electrons :   144
           Alpha electrons :    72
            Beta electrons :    72
          Charge           :     0
          Spin multiplicity:     1
          Use of symmetry is: off; symmetry adaption is: off
          Maximum number of iterations:  50
          AO basis - number of functions:   152
                     number of shells:    64
          Convergence on energy requested:  1.00D-06
          Convergence on density requested:  1.00D-05
          Convergence on gradient requested:  5.00D-04
 
              XC Information
              --------------
                         B3LYP Method XC Potential
                     Hartree-Fock (Exact) Exchange  0.200          
                        Slater Exchange Functional  0.800 local    
                    Becke 1988 Exchange Functional  0.720 non-local
              Lee-Yang-Parr Correlation Functional  0.810          
                  VWN I RPA Correlation Functional  0.190 local    
 
             Grid Information
             ----------------
          Grid used for XC integration:  xfine     
          Radial quadrature: Mura-Knowles        
          Angular quadrature: Lebedev. 
          Tag              B.-S. Rad. Rad. Pts. Rad. Cut. Ang. Pts.
          ---              ---------- --------- --------- ---------
          Ar                  1.00      125          14.0      1454
          Grid pruning is: on 
          Number of quadrature shells:  1000
          Spatial weights used:  Erf1
 
          Convergence Information
          -----------------------
          Convergence aids based upon iterative change in 
          total energy or number of iterations. 
          Levelshifting, if invoked, occurs when the 
          HOMO/LUMO gap drops below (HL_TOL):  1.00D-02
          DIIS, if invoked, will attempt to extrapolate 
          using up to (NFOCK): 10 stored Fock matrices.

                    Damping( 0%)  Levelshifting(0.5)       DIIS
                  --------------- ------------------- ---------------
          dE  on:    start            ASAP                start   
          dE off:    2 iters         50 iters            50 iters 

 
      Screening Tolerance Information
      -------------------------------
          Density screening/tol_rho:  1.00D-10
          AO Gaussian exp screening on grid/accAOfunc:  14
          CD Gaussian exp screening on grid/accCDfunc:  20
          XC Gaussian exp screening on grid/accXCfunc:  20
          Schwarz screening/accCoul:  1.00D-08

 
      Superposition of Atomic Density Guess
      -------------------------------------
 
 Sum of atomic energies:       -4214.17720848
 
      Non-variational initial energy
      ------------------------------

 Total energy =   -4214.183284
 1-e energy   =   -7882.763138
 2-e energy   =    2640.099206
 HOMO         =      -0.576903
 LUMO         =       0.487876
 
  WARNING: movecs_in_org=atomic not equal to movecs_in=./argon_cube.movecs
   Time after variat. SCF:      3.2
   Time prior to 1st pass:      3.7

 Integral file          = ./argon_cube.aoints.00
 Record size in doubles =  65536        No. of integs per rec  =  43688
 Max. records in memory =    113        Max. records in file   = 224883
 No. of bits per label  =      8        No. of bits per value  =     64


 #quartets = 4.459D+05 #integrals = 4.248D+06 #direct =  0.0% #cached =100.0%


File balance: exchanges=    18  moved=     6  time=   0.0


 Grid_pts file          = ./argon_cube.gridpts.00
 Record size in doubles =  12289        No. of grid_pts per rec  =   3070
 Max. records in memory =     29        Max. recs in file   =   1199274


           Memory utilization after 1st SCF pass: 
           Heap Space remaining (MW):       18.45            18446018
          Stack Space remaining (MW):       26.21            26213388

   convergence    iter        energy       DeltaE   RMS-Dens  Diis-err    time
 ---------------- ----- ----------------- --------- --------- ---------  ------
 d= 0,ls=0.0,diis     1  -4220.1103845948 -5.25D+03  2.89D-03  1.36D+00     4.3
 d= 0,ls=0.0,diis     2  -4220.1348952780 -2.45D-02  6.88D-04  4.36D-03     5.2
 d= 0,ls=0.0,diis     3  -4220.1352367430 -3.41D-04  2.92D-04  2.17D-03     7.9
 d= 0,ls=0.0,diis     4  -4220.1354908294 -2.54D-04  5.69D-06  8.23D-07    10.4
 d= 0,ls=0.0,diis     5  -4220.1354909214 -9.20D-08  2.69D-07  1.85D-09    12.0


         Total DFT energy =    -4220.135490921412
      One electron energy =    -7883.193307564938
           Coulomb energy =     2881.843692738333
    Exchange-Corr. energy =     -247.266523937405
 Nuclear repulsion energy =     1028.480647842597

 Numeric. integr. density =      144.000000015388

     Total iterative time =      8.6s


 
                       DFT Final Molecular Orbital Analysis
                       ------------------------------------
 
 Vector    1  Occ=2.000000D+00  E=-1.151058D+02
              MO Center= -1.7D-03, -1.8D-03, -1.5D-03, r^2= 1.1D+01
   Bfn.  Coefficient  Atom+Function         Bfn.  Coefficient  Atom+Function  
  ----- ------------  ---------------      ----- ------------  ---------------
     1      0.352535  1 Ar s                 20      0.352283  2 Ar s          
    39      0.352245  3 Ar s                 58      0.351973  4 Ar s          
    77      0.352268  5 Ar s                 96      0.351971  6 Ar s          
   115      0.351924  7 Ar s                134      0.351613  8 Ar s          
 
 Vector    2  Occ=2.000000D+00  E=-1.151058D+02
              MO Center=  1.8D-04, -7.1D-04, -1.0D-03, r^2= 1.1D+01
   Bfn.  Coefficient  Atom+Function         Bfn.  Coefficient  Atom+Function  
  ----- ------------  ---------------      ----- ------------  ---------------
    58      0.589801  4 Ar s                 77     -0.590183  5 Ar s          
    39      0.317015  3 Ar s                 96     -0.316671  6 Ar s          
    20      0.207864  2 Ar s                115     -0.207554  7 Ar s          
     1     -0.065443  1 Ar s                134      0.065379  8 Ar s          
 
 Vector    3  Occ=2.000000D+00  E=-1.151058D+02
              MO Center= -1.7D-03, -3.7D-04,  3.2D-04, r^2= 1.1D+01
   Bfn.  Coefficient  Atom+Function         Bfn.  Coefficient  Atom+Function  
  ----- ------------  ---------------      ----- ------------  ---------------
    20      0.512556  2 Ar s                115     -0.512042  7 Ar s          
    39     -0.476680  3 Ar s                 96      0.476316  6 Ar s          
    58      0.071543  4 Ar s                 77     -0.071601  5 Ar s          
     1     -0.035805  1 Ar s                134      0.035714  8 Ar s          
 
 Vector    4  Occ=2.000000D+00  E=-1.151058D+02
              MO Center= -1.3D-04, -5.8D-04, -7.0D-04, r^2= 1.1D+01
   Bfn.  Coefficient  Atom+Function         Bfn.  Coefficient  Atom+Function  
  ----- ------------  ---------------      ----- ------------  ---------------
     1      0.605513  1 Ar s                134     -0.605025  8 Ar s          
    20      0.257159  2 Ar s                115     -0.257950  7 Ar s          
    39      0.210484  3 Ar s                 96     -0.211372  6 Ar s          
    58     -0.137311  4 Ar s                 77      0.136375  5 Ar s          
 
 Vector    5  Occ=2.000000D+00  E=-1.151058D+02
              MO Center= -1.9D-04,  7.0D-04,  1.1D-03, r^2= 1.1D+01
   Bfn.  Coefficient  Atom+Function         Bfn.  Coefficient  Atom+Function  
  ----- ------------  ---------------      ----- ------------  ---------------
    58      0.590190  4 Ar s                 77      0.589807  5 Ar s          
    39     -0.318110  3 Ar s                 96     -0.318454  6 Ar s          
    20     -0.204919  2 Ar s                115     -0.205225  7 Ar s          
     1     -0.066641  1 Ar s                134     -0.066709  8 Ar s          
 
 Vector    6  Occ=2.000000D+00  E=-1.151058D+02
              MO Center=  1.7D-03,  3.8D-04, -3.2D-04, r^2= 1.1D+01
   Bfn.  Coefficient  Atom+Function         Bfn.  Coefficient  Atom+Function  
  ----- ------------  ---------------      ----- ------------  ---------------
    20      0.512759  2 Ar s                115      0.513274  7 Ar s          
    39     -0.475132  3 Ar s                 96     -0.475495  6 Ar s          
    58     -0.074026  4 Ar s                 77     -0.073966  5 Ar s          
     1      0.036260  1 Ar s                134      0.036352  8 Ar s          
 
 Vector    7  Occ=2.000000D+00  E=-1.151058D+02
              MO Center=  2.2D-04,  6.7D-04,  7.8D-04, r^2= 1.1D+01
   Bfn.  Coefficient  Atom+Function         Bfn.  Coefficient  Atom+Function  
  ----- ------------  ---------------      ----- ------------  ---------------
     1      0.604872  1 Ar s                134      0.605388  8 Ar s          
    20     -0.258615  2 Ar s                115     -0.257853  7 Ar s          
    39     -0.211843  3 Ar s                 96     -0.210984  6 Ar s          
    77     -0.135876  5 Ar s                 58     -0.134968  4 Ar s          
 
 Vector    8  Occ=2.000000D+00  E=-1.151058D+02
              MO Center=  1.6D-03,  1.7D-03,  1.4D-03, r^2= 1.1D+01
   Bfn.  Coefficient  Atom+Function         Bfn.  Coefficient  Atom+Function  
  ----- ------------  ---------------      ----- ------------  ---------------
     1      0.351692  1 Ar s                 20     -0.351929  2 Ar s          
    39     -0.351966  3 Ar s                 58      0.352222  4 Ar s          
    77     -0.351944  5 Ar s                 96      0.352225  6 Ar s          
   115      0.352270  7 Ar s                134     -0.352564  8 Ar s          
 
 Vector    9  Occ=2.000000D+00  E=-1.113926D+01
              MO Center= -6.4D-05, -6.4D-05, -6.0D-05, r^2= 1.1D+01
   Bfn.  Coefficient  Atom+Function         Bfn.  Coefficient  Atom+Function  
  ----- ------------  ---------------      ----- ------------  ---------------
     2      0.361572  1 Ar s                 21     -0.361561  2 Ar s          
    40     -0.361560  3 Ar s                 59      0.361549  4 Ar s          
    78     -0.361560  5 Ar s                 97      0.361549  6 Ar s          
   116      0.361548  7 Ar s                135     -0.361536  8 Ar s          
     1     -0.102123  1 Ar s                 20      0.102120  2 Ar s          
 
 Vector   10  Occ=2.000000D+00  E=-1.113925D+01
              MO Center=  1.6D-05, -3.3D-05, -5.1D-05, r^2= 1.1D+01
   Bfn.  Coefficient  Atom+Function         Bfn.  Coefficient  Atom+Function  
  ----- ------------  ---------------      ----- ------------  ---------------
    59      0.594773  4 Ar s                 78      0.594792  5 Ar s          
    40     -0.347019  3 Ar s                 97     -0.347005  6 Ar s          
    21     -0.218658  2 Ar s                116     -0.218648  7 Ar s          
    58     -0.167999  4 Ar s                 77     -0.168004  5 Ar s          
    39      0.098018  3 Ar s                 96      0.098014  6 Ar s          
 
 Vector   11  Occ=2.000000D+00  E=-1.113925D+01
              MO Center= -6.8D-05, -1.3D-05,  1.1D-05, r^2= 1.1D+01
   Bfn.  Coefficient  Atom+Function         Bfn.  Coefficient  Atom+Function  
  ----- ------------  ---------------      ----- ------------  ---------------
    21      0.539384  2 Ar s                116      0.539363  7 Ar s          
    40     -0.475000  3 Ar s                 97     -0.474984  6 Ar s          
    20     -0.152353  2 Ar s                115     -0.152348  7 Ar s          
    39      0.134168  3 Ar s                 96      0.134163  6 Ar s          
    59     -0.078163  4 Ar s                 78     -0.078166  5 Ar s          
 
 Vector   12  Occ=2.000000D+00  E=-1.113925D+01
              MO Center= -2.2D-05, -3.0D-05, -3.1D-05, r^2= 1.1D+01
   Bfn.  Coefficient  Atom+Function         Bfn.  Coefficient  Atom+Function  
  ----- ------------  ---------------      ----- ------------  ---------------
     2      0.625386  1 Ar s                135      0.625362  8 Ar s          
    21     -0.231061  2 Ar s                116     -0.231096  7 Ar s          
    40     -0.214683  3 Ar s                 97     -0.214718  6 Ar s          
    59     -0.179614  4 Ar s                 78     -0.179577  5 Ar s          
     1     -0.176645  1 Ar s                134     -0.176639  8 Ar s          
 
 Vector   13  Occ=2.000000D+00  E=-1.113924D+01
              MO Center= -1.5D-05,  3.2D-05,  5.0D-05, r^2= 1.1D+01
   Bfn.  Coefficient  Atom+Function         Bfn.  Coefficient  Atom+Function  
  ----- ------------  ---------------      ----- ------------  ---------------
    59      0.595133  4 Ar s                 78     -0.595114  5 Ar s          
    40      0.345672  3 Ar s                 97     -0.345686  6 Ar s          
    21      0.219645  2 Ar s                116     -0.219656  7 Ar s          
    58     -0.168109  4 Ar s                 77      0.168103  5 Ar s          
    39     -0.097643  3 Ar s                 96      0.097647  6 Ar s          
 
 Vector   14  Occ=2.000000D+00  E=-1.113924D+01
              MO Center=  6.8D-05,  1.3D-05, -1.1D-05, r^2= 1.1D+01
   Bfn.  Coefficient  Atom+Function         Bfn.  Coefficient  Atom+Function  
  ----- ------------  ---------------      ----- ------------  ---------------
    21      0.538710  2 Ar s                116     -0.538730  7 Ar s          
    40     -0.475882  3 Ar s                 97      0.475899  6 Ar s          
    20     -0.152171  2 Ar s                115      0.152176  7 Ar s          
    39      0.134424  3 Ar s                 96     -0.134428  6 Ar s          
    59      0.076887  4 Ar s                 78     -0.076884  5 Ar s          
 
 Vector   15  Occ=2.000000D+00  E=-1.113924D+01
              MO Center=  1.0D-05,  1.9D-05,  2.1D-05, r^2= 1.1D+01
   Bfn.  Coefficient  Atom+Function         Bfn.  Coefficient  Atom+Function  
  ----- ------------  ---------------      ----- ------------  ---------------
     2      0.625301  1 Ar s                135     -0.625322  8 Ar s          
    21      0.231610  2 Ar s                116     -0.231572  7 Ar s          
    40      0.214809  3 Ar s                 97     -0.214770  6 Ar s          
    59     -0.178911  4 Ar s                 78      0.178952  5 Ar s          
     1     -0.176630  1 Ar s                134      0.176636  8 Ar s          
 
 Vector   16  Occ=2.000000D+00  E=-1.113923D+01
              MO Center=  7.5D-05,  7.6D-05,  7.1D-05, r^2= 1.1D+01
   Bfn.  Coefficient  Atom+Function         Bfn.  Coefficient  Atom+Function  
  ----- ------------  ---------------      ----- ------------  ---------------
     2      0.361490  1 Ar s                 21      0.361504  2 Ar s          
    40      0.361505  3 Ar s                 59      0.361518  4 Ar s          
    78      0.361504  5 Ar s                 97      0.361518  6 Ar s          
   116      0.361519  7 Ar s                135      0.361533  8 Ar s          
     1     -0.102116  1 Ar s                 20     -0.102120  2 Ar s          
 
 Vector   17  Occ=2.000000D+00  E=-8.691107D+00
              MO Center=  4.2D-06,  3.9D-06,  7.4D-06, r^2= 1.1D+01
   Bfn.  Coefficient  Atom+Function         Bfn.  Coefficient  Atom+Function  
  ----- ------------  ---------------      ----- ------------  ---------------
     3      0.202193  1 Ar px                 4      0.202193  1 Ar py         
     5      0.202193  1 Ar pz                22     -0.202196  2 Ar px         
    23     -0.202197  2 Ar py                24      0.202190  2 Ar pz         
    41     -0.202196  3 Ar px                42      0.202190  3 Ar py         
    43     -0.202196  3 Ar pz                60      0.202199  4 Ar px         
 
 Vector   18  Occ=2.000000D+00  E=-8.691106D+00
              MO Center= -8.2D-06, -3.9D-07, -3.7D-05, r^2= 1.1D+01
   Bfn.  Coefficient  Atom+Function         Bfn.  Coefficient  Atom+Function  
  ----- ------------  ---------------      ----- ------------  ---------------
     5      0.284298  1 Ar pz                24      0.284292  2 Ar pz         
    43     -0.284299  3 Ar pz                62     -0.284292  4 Ar pz         
    81     -0.284298  5 Ar pz               100     -0.284292  6 Ar pz         
   119      0.284298  7 Ar pz               138      0.284291  8 Ar pz         
     3     -0.168738  1 Ar px                22      0.168736  2 Ar px         
 
 Vector   19  Occ=2.000000D+00  E=-8.691106D+00
              MO Center= -2.3D-05, -3.2D-05,  1.2D-05, r^2= 1.1D+01
   Bfn.  Coefficient  Atom+Function         Bfn.  Coefficient  Atom+Function  
  ----- ------------  ---------------      ----- ------------  ---------------
     4      0.261560  1 Ar py                23     -0.261562  2 Ar py         
    42      0.261554  3 Ar py                61     -0.261556  4 Ar py         
    80     -0.261559  5 Ar py                99      0.261560  6 Ar py         
   118     -0.261553  7 Ar py               137      0.261554  8 Ar py         
     3     -0.230859  1 Ar px                22      0.230861  2 Ar px         
 
 Vector   20  Occ=2.000000D+00  E=-8.691099D+00
              MO Center=  3.4D-07, -5.8D-06, -7.4D-06, r^2= 1.1D+01
   Bfn.  Coefficient  Atom+Function         Bfn.  Coefficient  Atom+Function  
  ----- ------------  ---------------      ----- ------------  ---------------
    43      0.336540  3 Ar pz               100     -0.336534  6 Ar pz         
    62      0.331606  4 Ar pz                81     -0.331613  5 Ar pz         
    23      0.262737  2 Ar py               118     -0.262733  7 Ar py         
    61      0.251903  4 Ar py                80     -0.251910  5 Ar py         
     3      0.212371  1 Ar px               136     -0.212372  8 Ar px         
 
 Vector   21  Occ=2.000000D+00  E=-8.691099D+00
              MO Center= -1.0D-05, -4.5D-06, -2.2D-06, r^2= 1.1D+01
   Bfn.  Coefficient  Atom+Function         Bfn.  Coefficient  Atom+Function  
  ----- ------------  ---------------      ----- ------------  ---------------
    41     -0.342983  3 Ar px                98      0.342976  6 Ar px         
    22      0.339943  2 Ar px               117     -0.339935  7 Ar px         
    61      0.242466  4 Ar py                80     -0.242471  5 Ar py         
    23      0.231394  2 Ar py               118     -0.231389  7 Ar py         
     5     -0.191212  1 Ar pz               138      0.191214  8 Ar pz         
 
 Vector   22  Occ=2.000000D+00  E=-8.691099D+00
              MO Center= -1.2D-05, -1.3D-05, -1.2D-05, r^2= 1.1D+01
   Bfn.  Coefficient  Atom+Function         Bfn.  Coefficient  Atom+Function  
  ----- ------------  ---------------      ----- ------------  ---------------
    24      0.298620  2 Ar pz               119     -0.298626  7 Ar pz         
    42      0.290091  3 Ar py                99     -0.290097  6 Ar py         
     5      0.288249  1 Ar pz               138     -0.288244  8 Ar pz         
    60     -0.284543  4 Ar px                79      0.284537  5 Ar px         
     4      0.279039  1 Ar py               137     -0.279033  8 Ar py         
 
 Vector   23  Occ=2.000000D+00  E=-8.691098D+00
              MO Center= -1.5D-05, -1.6D-05, -1.6D-05, r^2= 1.1D+01
   Bfn.  Coefficient  Atom+Function         Bfn.  Coefficient  Atom+Function  
  ----- ------------  ---------------      ----- ------------  ---------------
    43      0.293352  3 Ar pz                62      0.293345  4 Ar pz         
    81     -0.293352  5 Ar pz               100     -0.293345  6 Ar pz         
    23     -0.285270  2 Ar py                61     -0.285263  4 Ar py         
    80      0.285270  5 Ar py               118      0.285263  7 Ar py         
    22      0.278483  2 Ar px                41     -0.278483  3 Ar px         
 
 Vector   24  Occ=2.000000D+00  E=-8.691098D+00
              MO Center= -2.6D-05, -2.1D-05, -2.1D-05, r^2= 1.1D+01
   Bfn.  Coefficient  Atom+Function         Bfn.  Coefficient  Atom+Function  
  ----- ------------  ---------------      ----- ------------  ---------------
     3      0.350133  1 Ar px                60     -0.350130  4 Ar px         
    79      0.350125  5 Ar px               136     -0.350121  8 Ar px         
    23     -0.182020  2 Ar py                61     -0.182016  4 Ar py         
    80      0.182021  5 Ar py               118      0.182017  7 Ar py         
     5     -0.176227  1 Ar pz                24     -0.176223  2 Ar pz         
 
 Vector   25  Occ=2.000000D+00  E=-8.691098D+00
              MO Center= -2.0D-05, -2.4D-05, -2.3D-05, r^2= 1.1D+01
   Bfn.  Coefficient  Atom+Function         Bfn.  Coefficient  Atom+Function  
  ----- ------------  ---------------      ----- ------------  ---------------
     4      0.303636  1 Ar py                 5     -0.302586  1 Ar pz         
    24     -0.302579  2 Ar pz                42      0.303629  3 Ar py         
    99     -0.303634  6 Ar py               119      0.302583  7 Ar pz         
   137     -0.303626  8 Ar py               138      0.302576  8 Ar pz         
    22     -0.212310  2 Ar px                41      0.212310  3 Ar px         
 
 Vector   26  Occ=2.000000D+00  E=-8.691091D+00
              MO Center= -1.6D-05, -5.3D-06, -2.4D-05, r^2= 1.1D+01
   Bfn.  Coefficient  Atom+Function         Bfn.  Coefficient  Atom+Function  
  ----- ------------  ---------------      ----- ------------  ---------------
     5      0.275027  1 Ar pz               138      0.275021  8 Ar pz         
    43      0.273333  3 Ar pz               100      0.273328  6 Ar pz         
    62      0.266758  4 Ar pz                81      0.266766  5 Ar pz         
    24      0.265066  2 Ar pz               119      0.265073  7 Ar pz         
    41     -0.224245  3 Ar px                98     -0.224242  6 Ar px         
 
 Vector   27  Occ=2.000000D+00  E=-8.691091D+00
              MO Center= -1.3D-05, -2.3D-05, -1.2D-05, r^2= 1.1D+01
   Bfn.  Coefficient  Atom+Function         Bfn.  Coefficient  Atom+Function  
  ----- ------------  ---------------      ----- ------------  ---------------
     4      0.287123  1 Ar py               137      0.287116  8 Ar py         
    23      0.283323  2 Ar py               118      0.283318  7 Ar py         
    61      0.280230  4 Ar py                80      0.280238  5 Ar py         
    42      0.276432  3 Ar py                99      0.276438  6 Ar py         
    22     -0.189172  2 Ar px               117     -0.189171  7 Ar px         
 
 Vector   28  Occ=2.000000D+00  E=-8.691091D+00
              MO Center= -2.9D-05, -2.9D-05, -3.1D-05, r^2= 1.1D+01
   Bfn.  Coefficient  Atom+Function         Bfn.  Coefficient  Atom+Function  
  ----- ------------  ---------------      ----- ------------  ---------------
    60      0.212117  4 Ar px                79      0.212118  5 Ar px         
    42      0.210554  3 Ar py                99      0.210553  6 Ar py         
    24      0.206646  2 Ar pz               119      0.206645  7 Ar pz         
    22      0.204439  2 Ar px                41      0.204590  3 Ar px         
    98      0.204585  6 Ar px               117      0.204435  7 Ar px         
 
 Vector   29  Occ=2.000000D+00  E=-8.691062D+00
              MO Center=  2.4D-05,  8.8D-06,  2.2D-05, r^2= 1.1D+01
   Bfn.  Coefficient  Atom+Function         Bfn.  Coefficient  Atom+Function  
  ----- ------------  ---------------      ----- ------------  ---------------
    60      0.275497  4 Ar px                79     -0.275501  5 Ar px         
    22     -0.272887  2 Ar px               117      0.272893  7 Ar px         
    41     -0.267340  3 Ar px                98      0.267346  6 Ar px         
     3      0.264730  1 Ar px               136     -0.264738  8 Ar px         
    62     -0.218709  4 Ar pz                81      0.218703  5 Ar pz         
 
 Vector   30  Occ=2.000000D+00  E=-8.691062D+00
              MO Center=  1.0D-05,  2.5D-05,  2.0D-05, r^2= 1.1D+01
   Bfn.  Coefficient  Atom+Function         Bfn.  Coefficient  Atom+Function  
  ----- ------------  ---------------      ----- ------------  ---------------
    42     -0.282857  3 Ar py                99      0.282853  6 Ar py         
    23     -0.279608  2 Ar py               118      0.279614  7 Ar py         
    61      0.275318  4 Ar py                80     -0.275311  5 Ar py         
     4      0.272066  1 Ar py               137     -0.272074  8 Ar py         
    43      0.203148  3 Ar pz               100     -0.203154  6 Ar pz         
 
 Vector   31  Occ=2.000000D+00  E=-8.691062D+00
              MO Center=  2.8D-05,  2.7D-05,  3.0D-05, r^2= 1.1D+01
   Bfn.  Coefficient  Atom+Function         Bfn.  Coefficient  Atom+Function  
  ----- ------------  ---------------      ----- ------------  ---------------
     3      0.213879  1 Ar px               136     -0.213888  8 Ar px         
     4      0.210268  1 Ar py               137     -0.210277  8 Ar py         
     5      0.205531  1 Ar pz                22     -0.206284  2 Ar px         
    41     -0.206098  3 Ar px                98      0.206102  6 Ar px         
   117      0.206287  7 Ar px               138     -0.205539  8 Ar pz         
 
 Vector   32  Occ=2.000000D+00  E=-8.691056D+00
              MO Center=  4.8D-06,  9.6D-06,  8.7D-06, r^2= 1.1D+01
   Bfn.  Coefficient  Atom+Function         Bfn.  Coefficient  Atom+Function  
  ----- ------------  ---------------      ----- ------------  ---------------
    62     -0.335141  4 Ar pz                81     -0.335134  5 Ar pz         
    43      0.330026  3 Ar pz               100      0.330032  6 Ar pz         
    61     -0.265872  4 Ar py                80     -0.265867  5 Ar py         
    23      0.255311  2 Ar py               118      0.255317  7 Ar py         
    60      0.214319  4 Ar px                79      0.214328  5 Ar px         
 
 Vector   33  Occ=2.000000D+00  E=-8.691056D+00
              MO Center=  1.2D-05,  7.8D-06,  8.4D-06, r^2= 1.1D+01
   Bfn.  Coefficient  Atom+Function         Bfn.  Coefficient  Atom+Function  
  ----- ------------  ---------------      ----- ------------  ---------------
    22      0.343910  2 Ar px               117      0.343917  7 Ar px         
    41     -0.341132  3 Ar px                98     -0.341140  6 Ar px         
    23      0.238812  2 Ar py               118      0.238816  7 Ar py         
    61     -0.227768  4 Ar py                80     -0.227762  5 Ar py         
    24     -0.190170  2 Ar pz               119     -0.190162  7 Ar pz         
 
 Vector   34  Occ=2.000000D+00  E=-8.691056D+00
              MO Center=  1.4D-05,  1.4D-05,  1.3D-05, r^2= 1.1D+01
   Bfn.  Coefficient  Atom+Function         Bfn.  Coefficient  Atom+Function  
  ----- ------------  ---------------      ----- ------------  ---------------
     5      0.298955  1 Ar pz               138      0.298961  8 Ar pz         
     4      0.290481  1 Ar py               137      0.290487  8 Ar py         
    24     -0.288778  2 Ar pz               119     -0.288772  7 Ar pz         
     3      0.283583  1 Ar px               136      0.283588  8 Ar px         
    42     -0.279637  3 Ar py                99     -0.279632  6 Ar py         
 
 Vector   35  Occ=2.000000D+00  E=-8.691056D+00
              MO Center=  1.5D-05,  1.5D-05,  1.6D-05, r^2= 1.1D+01
   Bfn.  Coefficient  Atom+Function         Bfn.  Coefficient  Atom+Function  
  ----- ------------  ---------------      ----- ------------  ---------------
    43      0.293449  3 Ar pz                62     -0.293456  4 Ar pz         
    81     -0.293449  5 Ar pz               100      0.293456  6 Ar pz         
    23     -0.285277  2 Ar py                61      0.285284  4 Ar py         
    80      0.285277  5 Ar py               118     -0.285284  7 Ar py         
    22      0.278498  2 Ar px                41     -0.278498  3 Ar px         
 
 Vector   36  Occ=2.000000D+00  E=-8.691056D+00
              MO Center=  2.2D-05,  1.8D-05,  2.0D-05, r^2= 1.1D+01
   Bfn.  Coefficient  Atom+Function         Bfn.  Coefficient  Atom+Function  
  ----- ------------  ---------------      ----- ------------  ---------------
     3      0.350137  1 Ar px                60     -0.350137  4 Ar px         
    79     -0.350144  5 Ar px               136      0.350148  8 Ar px         
    23      0.182432  2 Ar py                61     -0.182438  4 Ar py         
    80     -0.182432  5 Ar py               118      0.182435  7 Ar py         
     5     -0.177083  1 Ar pz                24      0.177085  2 Ar pz         
 
 Vector   37  Occ=2.000000D+00  E=-8.691056D+00
              MO Center=  1.8D-05,  2.1D-05,  2.0D-05, r^2= 1.1D+01
   Bfn.  Coefficient  Atom+Function         Bfn.  Coefficient  Atom+Function  
  ----- ------------  ---------------      ----- ------------  ---------------
     4      0.304125  1 Ar py                42     -0.304130  3 Ar py         
    99     -0.304125  6 Ar py               137      0.304134  8 Ar py         
     5     -0.302122  1 Ar pz                24      0.302126  2 Ar pz         
   119      0.302121  7 Ar pz               138     -0.302130  8 Ar pz         
    22      0.212471  2 Ar px                41     -0.212470  3 Ar px         
 
 Vector   38  Occ=2.000000D+00  E=-8.691050D+00
              MO Center=  5.4D-06, -2.2D-06,  3.4D-05, r^2= 1.1D+01
   Bfn.  Coefficient  Atom+Function         Bfn.  Coefficient  Atom+Function  
  ----- ------------  ---------------      ----- ------------  ---------------
     5      0.284268  1 Ar pz                24     -0.284275  2 Ar pz         
    43      0.284267  3 Ar pz                62     -0.284274  4 Ar pz         
    81      0.284267  5 Ar pz               100     -0.284274  6 Ar pz         
   119      0.284267  7 Ar pz               138     -0.284274  8 Ar pz         
     3     -0.169497  1 Ar px                22     -0.169498  2 Ar px         
 
 Vector   39  Occ=2.000000D+00  E=-8.691050D+00
              MO Center=  2.0D-05,  2.9D-05, -1.6D-05, r^2= 1.1D+01
   Bfn.  Coefficient  Atom+Function         Bfn.  Coefficient  Atom+Function  
  ----- ------------  ---------------      ----- ------------  ---------------
     4      0.261985  1 Ar py                23      0.261982  2 Ar py         
    42     -0.261991  3 Ar py                61     -0.261989  4 Ar py         
    80      0.261985  5 Ar py                99      0.261983  6 Ar py         
   118     -0.261991  7 Ar py               137     -0.261989  8 Ar py         
     3     -0.230368  1 Ar px                22     -0.230365  2 Ar px         
 
 Vector   40  Occ=2.000000D+00  E=-8.691050D+00
              MO Center= -3.3D-06, -2.9D-06, -7.9D-06, r^2= 1.1D+01
   Bfn.  Coefficient  Atom+Function         Bfn.  Coefficient  Atom+Function  
  ----- ------------  ---------------      ----- ------------  ---------------
     3      0.202254  1 Ar px                 4      0.202245  1 Ar py         
     5      0.202231  1 Ar pz                22      0.202250  2 Ar px         
    23      0.202241  2 Ar py                24     -0.202235  2 Ar pz         
    41      0.202251  3 Ar px                42     -0.202248  3 Ar py         
    43      0.202228  3 Ar pz                60      0.202248  4 Ar px         
 
 Vector   41  Occ=2.000000D+00  E=-9.652905D-01
              MO Center= -9.9D-07, -9.9D-07, -9.6D-07, r^2= 1.1D+01
   Bfn.  Coefficient  Atom+Function         Bfn.  Coefficient  Atom+Function  
  ----- ------------  ---------------      ----- ------------  ---------------
     6      0.277217  1 Ar s                 25      0.277217  2 Ar s          
    44      0.277217  3 Ar s                 63      0.277217  4 Ar s          
    82      0.277217  5 Ar s                101      0.277217  6 Ar s          
   120      0.277217  7 Ar s                139      0.277216  8 Ar s          
     2     -0.141569  1 Ar s                 21     -0.141569  2 Ar s          
 
 Vector   42  Occ=2.000000D+00  E=-9.641204D-01
              MO Center= -3.8D-07, -3.8D-07, -3.7D-07, r^2= 1.1D+01
   Bfn.  Coefficient  Atom+Function         Bfn.  Coefficient  Atom+Function  
  ----- ------------  ---------------      ----- ------------  ---------------
     6      0.481539  1 Ar s                139     -0.481538  8 Ar s          
     2     -0.245672  1 Ar s                135      0.245672  8 Ar s          
    10      0.207708  1 Ar s                143     -0.207708  8 Ar s          
    63     -0.161111  4 Ar s                 82      0.161110  5 Ar s          
    25      0.160215  2 Ar s                 44      0.160214  3 Ar s          
 
 Vector   43  Occ=2.000000D+00  E=-9.641204D-01
              MO Center=  3.4D-07, -6.8D-07, -6.7D-07, r^2= 1.1D+01
   Bfn.  Coefficient  Atom+Function         Bfn.  Coefficient  Atom+Function  
  ----- ------------  ---------------      ----- ------------  ---------------
    63      0.453783  4 Ar s                 82     -0.453783  5 Ar s          
    59     -0.231512  4 Ar s                 78      0.231512  5 Ar s          
    44      0.228975  3 Ar s                101     -0.228975  6 Ar s          
    25      0.225442  2 Ar s                120     -0.225442  7 Ar s          
    67      0.195736  4 Ar s                 86     -0.195736  5 Ar s          
 
 Vector   44  Occ=2.000000D+00  E=-9.641204D-01
              MO Center= -1.0D-06, -6.9D-09,  5.2D-09, r^2= 1.1D+01
   Bfn.  Coefficient  Atom+Function         Bfn.  Coefficient  Atom+Function  
  ----- ------------  ---------------      ----- ------------  ---------------
    25      0.394192  2 Ar s                120     -0.394192  7 Ar s          
    44     -0.392151  3 Ar s                101      0.392150  6 Ar s          
    21     -0.201109  2 Ar s                116      0.201109  7 Ar s          
    40      0.200068  3 Ar s                 97     -0.200068  6 Ar s          
    29      0.170032  2 Ar s                124     -0.170032  7 Ar s          
 
 Vector   45  Occ=2.000000D+00  E=-9.629826D-01
              MO Center=  3.2D-07,  3.1D-07,  3.0D-07, r^2= 1.1D+01
   Bfn.  Coefficient  Atom+Function         Bfn.  Coefficient  Atom+Function  
  ----- ------------  ---------------      ----- ------------  ---------------
     6      0.482851  1 Ar s                139      0.482852  8 Ar s          
     2     -0.246130  1 Ar s                135     -0.246130  8 Ar s          
    10      0.207586  1 Ar s                143      0.207586  8 Ar s          
    63     -0.161568  4 Ar s                 82     -0.161569  5 Ar s          
    25     -0.160629  2 Ar s                 44     -0.160654  3 Ar s          
 
 Vector   46  Occ=2.000000D+00  E=-9.629826D-01
              MO Center= -3.5D-07,  6.6D-07,  6.9D-07, r^2= 1.1D+01
   Bfn.  Coefficient  Atom+Function         Bfn.  Coefficient  Atom+Function  
  ----- ------------  ---------------      ----- ------------  ---------------
    63      0.454911  4 Ar s                 82      0.454910  5 Ar s          
    44     -0.236361  3 Ar s                101     -0.236361  6 Ar s          
    59     -0.231887  4 Ar s                 78     -0.231887  5 Ar s          
    25     -0.219205  2 Ar s                120     -0.219205  7 Ar s          
    67      0.195573  4 Ar s                 86      0.195573  5 Ar s          
 
 Vector   47  Occ=2.000000D+00  E=-9.629826D-01
              MO Center=  1.0D-06,  2.4D-08, -2.5D-08, r^2= 1.1D+01
   Bfn.  Coefficient  Atom+Function         Bfn.  Coefficient  Atom+Function  
  ----- ------------  ---------------      ----- ------------  ---------------
    25      0.399116  2 Ar s                120      0.399116  7 Ar s          
    44     -0.389191  3 Ar s                101     -0.389191  6 Ar s          
    21     -0.203446  2 Ar s                116     -0.203446  7 Ar s          
    40      0.198387  3 Ar s                 97      0.198387  6 Ar s          
    29      0.171586  2 Ar s                124      0.171586  7 Ar s          
 
 Vector   48  Occ=2.000000D+00  E=-9.618753D-01
              MO Center=  1.1D-06,  1.1D-06,  1.0D-06, r^2= 1.2D+01
   Bfn.  Coefficient  Atom+Function         Bfn.  Coefficient  Atom+Function  
  ----- ------------  ---------------      ----- ------------  ---------------
     6      0.279492  1 Ar s                 25     -0.279492  2 Ar s          
    44     -0.279492  3 Ar s                 63      0.279492  4 Ar s          
    82     -0.279492  5 Ar s                101      0.279492  6 Ar s          
   120      0.279492  7 Ar s                139     -0.279492  8 Ar s          
     2     -0.142362  1 Ar s                 21      0.142361  2 Ar s          
 
 Vector   49  Occ=2.000000D+00  E=-4.296698D-01
              MO Center= -7.6D-07, -7.7D-07, -7.5D-07, r^2= 1.2D+01
   Bfn.  Coefficient  Atom+Function         Bfn.  Coefficient  Atom+Function  
  ----- ------------  ---------------      ----- ------------  ---------------
     7      0.150655  1 Ar px                 8      0.150655  1 Ar py         
     9      0.150655  1 Ar pz                26      0.150655  2 Ar px         
    27      0.150655  2 Ar py                28     -0.150655  2 Ar pz         
    45      0.150655  3 Ar px                46     -0.150655  3 Ar py         
    47      0.150655  3 Ar pz                64      0.150655  4 Ar px         
 
 Vector   50  Occ=2.000000D+00  E=-4.292845D-01
              MO Center= -2.9D-07, -5.4D-07,  1.7D-07, r^2= 1.2D+01
   Bfn.  Coefficient  Atom+Function         Bfn.  Coefficient  Atom+Function  
  ----- ------------  ---------------      ----- ------------  ---------------
     9      0.210086  1 Ar pz                28     -0.210086  2 Ar pz         
    47      0.210086  3 Ar pz                66     -0.210086  4 Ar pz         
    85      0.210086  5 Ar pz               104     -0.210086  6 Ar pz         
   123      0.210086  7 Ar pz               142     -0.210086  8 Ar pz         
     7     -0.137960  1 Ar px                26     -0.137960  2 Ar px         
 
 Vector   51  Occ=2.000000D+00  E=-4.292845D-01
              MO Center= -1.6D-07,  8.8D-08, -5.9D-07, r^2= 1.2D+01
   Bfn.  Coefficient  Atom+Function         Bfn.  Coefficient  Atom+Function  
  ----- ------------  ---------------      ----- ------------  ---------------
     8      0.200944  1 Ar py                27      0.200944  2 Ar py         
    46     -0.200944  3 Ar py                65     -0.200944  4 Ar py         
    84      0.200944  5 Ar py               103      0.200944  6 Ar py         
   122     -0.200944  7 Ar py               141     -0.200944  8 Ar py         
     7     -0.162935  1 Ar px                26     -0.162935  2 Ar px         
 
 Vector   52  Occ=2.000000D+00  E=-4.276849D-01
              MO Center= -2.3D-07, -2.3D-07, -2.2D-07, r^2= 1.2D+01
   Bfn.  Coefficient  Atom+Function         Bfn.  Coefficient  Atom+Function  
  ----- ------------  ---------------      ----- ------------  ---------------
    28     -0.217121  2 Ar pz                46     -0.217460  3 Ar py         
    64     -0.217631  4 Ar px                83     -0.217631  5 Ar px         
   103     -0.217460  6 Ar py               123     -0.217121  7 Ar pz         
     7      0.212310  1 Ar px                 8      0.212130  1 Ar py         
     9      0.211773  1 Ar pz               140      0.212310  8 Ar px         
 
 Vector   53  Occ=2.000000D+00  E=-4.276849D-01
              MO Center= -2.1D-07, -7.6D-07, -1.7D-07, r^2= 1.2D+01
   Bfn.  Coefficient  Atom+Function         Bfn.  Coefficient  Atom+Function  
  ----- ------------  ---------------      ----- ------------  ---------------
    27      0.262709  2 Ar py                65     -0.262978  4 Ar py         
    84     -0.262978  5 Ar py               122      0.262709  7 Ar py         
    45     -0.142441  3 Ar px               102     -0.142441  6 Ar px         
     9      0.137780  1 Ar pz               142      0.137780  8 Ar pz         
    26      0.136033  2 Ar px                31      0.136318  2 Ar py         
 
 Vector   54  Occ=2.000000D+00  E=-4.276849D-01
              MO Center= -5.4D-07,  2.4D-09, -5.8D-07, r^2= 1.2D+01
   Bfn.  Coefficient  Atom+Function         Bfn.  Coefficient  Atom+Function  
  ----- ------------  ---------------      ----- ------------  ---------------
    66      0.233913  4 Ar pz                85      0.233913  5 Ar pz         
    47     -0.230371  3 Ar pz               104     -0.230370  6 Ar pz         
    26      0.225113  2 Ar px               121      0.225113  7 Ar px         
    45     -0.221122  3 Ar px               102     -0.221122  6 Ar px         
     8     -0.155456  1 Ar py               141     -0.155456  8 Ar py         
 
 Vector   55  Occ=2.000000D+00  E=-4.274429D-01
              MO Center= -9.1D-09, -1.2D-08, -8.9D-09, r^2= 1.2D+01
   Bfn.  Coefficient  Atom+Function         Bfn.  Coefficient  Atom+Function  
  ----- ------------  ---------------      ----- ------------  ---------------
    26      0.214465  2 Ar px                27     -0.215425  2 Ar py         
    45     -0.214465  3 Ar px                47      0.215251  3 Ar pz         
    65      0.215425  4 Ar py                66     -0.215251  4 Ar pz         
    84      0.215425  5 Ar py                85     -0.215251  5 Ar pz         
   102     -0.214465  6 Ar px               104      0.215251  6 Ar pz         
 
 Vector   56  Occ=2.000000D+00  E=-4.274429D-01
              MO Center=  1.1D-07,  6.5D-07,  5.5D-07, r^2= 1.2D+01
   Bfn.  Coefficient  Atom+Function         Bfn.  Coefficient  Atom+Function  
  ----- ------------  ---------------      ----- ------------  ---------------
     7      0.262426  1 Ar px                64     -0.262426  4 Ar px         
    83     -0.262426  5 Ar px               140      0.262426  8 Ar px         
     9     -0.150603  1 Ar pz                28      0.150603  2 Ar pz         
   123      0.150603  7 Ar pz               142     -0.150603  8 Ar pz         
    27      0.137465  2 Ar py                65     -0.137465  4 Ar py         
 
 Vector   57  Occ=2.000000D+00  E=-4.274429D-01
              MO Center=  7.5D-07,  2.3D-07,  3.3D-07, r^2= 1.2D+01
   Bfn.  Coefficient  Atom+Function         Bfn.  Coefficient  Atom+Function  
  ----- ------------  ---------------      ----- ------------  ---------------
     8      0.238461  1 Ar py                46     -0.238461  3 Ar py         
   103     -0.238461  6 Ar py               141      0.238461  8 Ar py         
     9     -0.216071  1 Ar pz                28      0.216071  2 Ar pz         
   123      0.216071  7 Ar pz               142     -0.216071  8 Ar pz         
    26      0.152319  2 Ar px                45     -0.152319  3 Ar px         
 
 Vector   58  Occ=2.000000D+00  E=-4.257963D-01
              MO Center= -3.3D-07,  2.2D-08,  5.3D-07, r^2= 1.2D+01
   Bfn.  Coefficient  Atom+Function         Bfn.  Coefficient  Atom+Function  
  ----- ------------  ---------------      ----- ------------  ---------------
     7      0.207698  1 Ar px               140     -0.207698  8 Ar px         
    26     -0.206638  2 Ar px               121      0.206638  7 Ar px         
    45     -0.203726  3 Ar px               102      0.203726  6 Ar px         
    64      0.202665  4 Ar px                83     -0.202665  5 Ar px         
    27      0.165043  2 Ar py               122     -0.165043  7 Ar py         
 
 Vector   59  Occ=2.000000D+00  E=-4.257963D-01
              MO Center=  4.9D-07,  1.5D-07, -3.9D-07, r^2= 1.2D+01
   Bfn.  Coefficient  Atom+Function         Bfn.  Coefficient  Atom+Function  
  ----- ------------  ---------------      ----- ------------  ---------------
     9      0.214568  1 Ar pz               142     -0.214568  8 Ar pz         
    66      0.212887  4 Ar pz                85     -0.212887  5 Ar pz         
    47     -0.211050  3 Ar pz               104      0.211050  6 Ar pz         
    28     -0.209369  2 Ar pz               123      0.209369  7 Ar pz         
    65     -0.146898  4 Ar py                84      0.146899  5 Ar py         
 
 Vector   60  Occ=2.000000D+00  E=-4.257963D-01
              MO Center=  9.8D-07,  9.8D-07,  9.7D-07, r^2= 1.2D+01
   Bfn.  Coefficient  Atom+Function         Bfn.  Coefficient  Atom+Function  
  ----- ------------  ---------------      ----- ------------  ---------------
    28     -0.156760  2 Ar pz                46     -0.156691  3 Ar py         
    64      0.156760  4 Ar px                83     -0.156759  5 Ar px         
   103      0.156692  6 Ar py               123      0.156760  7 Ar pz         
    26     -0.153009  2 Ar px                27     -0.152939  2 Ar py         
    45     -0.153007  3 Ar px                47     -0.153008  3 Ar pz         
 
 Vector   61  Occ=2.000000D+00  E=-4.170815D-01
              MO Center= -8.7D-08, -9.4D-08, -7.6D-08, r^2= 1.2D+01
   Bfn.  Coefficient  Atom+Function         Bfn.  Coefficient  Atom+Function  
  ----- ------------  ---------------      ----- ------------  ---------------
     7      0.160701  1 Ar px                 8      0.160049  1 Ar py         
     9      0.160582  1 Ar pz               140      0.160701  8 Ar px         
   141      0.160049  8 Ar py               142      0.160582  8 Ar pz         
    26      0.156607  2 Ar px                27      0.155956  2 Ar py         
    45      0.156621  3 Ar px                47      0.156503  3 Ar pz         
 
 Vector   62  Occ=2.000000D+00  E=-4.170815D-01
              MO Center= -6.6D-07, -6.9D-07, -7.5D-07, r^2= 1.2D+01
   Bfn.  Coefficient  Atom+Function         Bfn.  Coefficient  Atom+Function  
  ----- ------------  ---------------      ----- ------------  ---------------
    45      0.205658  3 Ar px                64      0.206398  4 Ar px         
    83      0.206399  5 Ar px               102      0.205658  6 Ar px         
     7      0.201050  1 Ar px                26      0.201790  2 Ar px         
   121      0.201790  7 Ar px               140      0.201049  8 Ar px         
    46     -0.178460  3 Ar py                65     -0.179201  4 Ar py         
 
 Vector   63  Occ=2.000000D+00  E=-4.170815D-01
              MO Center= -7.6D-07, -7.3D-07, -6.3D-07, r^2= 1.2D+01
   Bfn.  Coefficient  Atom+Function         Bfn.  Coefficient  Atom+Function  
  ----- ------------  ---------------      ----- ------------  ---------------
    28      0.222070  2 Ar pz               123      0.222070  7 Ar pz         
    47      0.219833  3 Ar pz               104      0.219833  6 Ar pz         
    66      0.218562  4 Ar pz                85      0.218562  5 Ar pz         
     9      0.216326  1 Ar pz               142      0.216325  8 Ar pz         
    27     -0.138089  2 Ar py               122     -0.138089  7 Ar py         
 
 Vector   64  Occ=2.000000D+00  E=-4.157829D-01
              MO Center= -7.7D-07, -8.1D-08, -1.9D-07, r^2= 1.2D+01
   Bfn.  Coefficient  Atom+Function         Bfn.  Coefficient  Atom+Function  
  ----- ------------  ---------------      ----- ------------  ---------------
    65      0.245756  4 Ar py                84     -0.245756  5 Ar py         
    27      0.242145  2 Ar py               122     -0.242144  7 Ar py         
    66      0.228489  4 Ar pz                85     -0.228489  5 Ar pz         
    47      0.223963  3 Ar pz               104     -0.223963  6 Ar pz         
    64     -0.161689  4 Ar px                83      0.161689  5 Ar px         
 
 Vector   65  Occ=2.000000D+00  E=-4.157829D-01
              MO Center=  9.1D-08, -6.1D-07, -5.0D-07, r^2= 1.2D+01
   Bfn.  Coefficient  Atom+Function         Bfn.  Coefficient  Atom+Function  
  ----- ------------  ---------------      ----- ------------  ---------------
    26      0.271201  2 Ar px                45     -0.271716  3 Ar px         
   102      0.271716  6 Ar px               121     -0.271201  7 Ar px         
    47     -0.154442  3 Ar pz               104      0.154442  6 Ar pz         
    66     -0.147712  4 Ar pz                85      0.147712  5 Ar pz         
    46      0.144001  3 Ar py               103     -0.144000  6 Ar py         
 
 Vector   66  Occ=2.000000D+00  E=-4.157829D-01
              MO Center=  1.8D-07,  1.8D-07,  1.7D-07, r^2= 1.2D+01
   Bfn.  Coefficient  Atom+Function         Bfn.  Coefficient  Atom+Function  
  ----- ------------  ---------------      ----- ------------  ---------------
     8      0.225565  1 Ar py               141     -0.225565  8 Ar py         
     7      0.224320  1 Ar px                 9      0.225059  1 Ar pz         
   140     -0.224320  8 Ar px               142     -0.225059  8 Ar pz         
    28      0.219330  2 Ar pz                46      0.219863  3 Ar py         
   103     -0.219863  6 Ar py                64     -0.218552  4 Ar px         
 
 Vector   67  Occ=2.000000D+00  E=-4.155238D-01
              MO Center=  7.1D-07,  1.9D-07, -5.4D-08, r^2= 1.2D+01
   Bfn.  Coefficient  Atom+Function         Bfn.  Coefficient  Atom+Function  
  ----- ------------  ---------------      ----- ------------  ---------------
     7      0.268950  1 Ar px                64     -0.268950  4 Ar px         
    83      0.268950  5 Ar px               140     -0.268950  8 Ar px         
     8     -0.172222  1 Ar py                46     -0.172222  3 Ar py         
   103      0.172222  6 Ar py               141      0.172222  8 Ar py         
    47     -0.147039  3 Ar pz                66     -0.147039  4 Ar pz         
 
 Vector   68  Occ=2.000000D+00  E=-4.155238D-01
              MO Center= -1.6D-07,  3.7D-07,  6.1D-07, r^2= 1.2D+01
   Bfn.  Coefficient  Atom+Function         Bfn.  Coefficient  Atom+Function  
  ----- ------------  ---------------      ----- ------------  ---------------
     9      0.254710  1 Ar pz                28      0.254710  2 Ar pz         
   123     -0.254710  7 Ar pz               142     -0.254710  8 Ar pz         
     8     -0.211124  1 Ar py                46     -0.211124  3 Ar py         
   103      0.211124  6 Ar py               141      0.211124  8 Ar py         
    26      0.154818  2 Ar px                45     -0.154818  3 Ar px         
 
 Vector   69  Occ=2.000000D+00  E=-4.155238D-01
              MO Center=  9.4D-09,  8.3D-09,  1.2D-08, r^2= 1.2D+01
   Bfn.  Coefficient  Atom+Function         Bfn.  Coefficient  Atom+Function  
  ----- ------------  ---------------      ----- ------------  ---------------
    26      0.222779  2 Ar px                27     -0.222246  2 Ar py         
    45     -0.222779  3 Ar px                47      0.222358  3 Ar pz         
    65     -0.222246  4 Ar py                66      0.222358  4 Ar pz         
    84      0.222246  5 Ar py                85     -0.222358  5 Ar pz         
   102      0.222779  6 Ar px               104     -0.222358  6 Ar pz         
 
 Vector   70  Occ=2.000000D+00  E=-4.145261D-01
              MO Center= -6.9D-08, -6.5D-08, -8.5D-08, r^2= 1.2D+01
   Bfn.  Coefficient  Atom+Function         Bfn.  Coefficient  Atom+Function  
  ----- ------------  ---------------      ----- ------------  ---------------
     7      0.157759  1 Ar px                 8      0.157759  1 Ar py         
     9      0.157759  1 Ar pz                26     -0.157759  2 Ar px         
    27     -0.157759  2 Ar py                28      0.157759  2 Ar pz         
    45     -0.157759  3 Ar px                46      0.157759  3 Ar py         
    47     -0.157759  3 Ar pz                64      0.157759  4 Ar px         
 
 Vector   71  Occ=2.000000D+00  E=-4.141597D-01
              MO Center=  8.3D-07,  8.3D-07,  8.7D-07, r^2= 1.2D+01
   Bfn.  Coefficient  Atom+Function         Bfn.  Coefficient  Atom+Function  
  ----- ------------  ---------------      ----- ------------  ---------------
     8     -0.195573  1 Ar py                27      0.195573  2 Ar py         
    46     -0.195573  3 Ar py                65      0.195573  4 Ar py         
    84      0.195573  5 Ar py               103     -0.195573  6 Ar py         
   122      0.195573  7 Ar py               141     -0.195573  8 Ar py         
     7      0.191553  1 Ar px                26     -0.191553  2 Ar px         
 
 Vector   72  Occ=2.000000D+00  E=-4.141597D-01
              MO Center=  8.7D-07,  8.7D-07,  8.0D-07, r^2= 1.2D+01
   Bfn.  Coefficient  Atom+Function         Bfn.  Coefficient  Atom+Function  
  ----- ------------  ---------------      ----- ------------  ---------------
     9      0.223507  1 Ar pz                28      0.223507  2 Ar pz         
    47     -0.223507  3 Ar pz                66     -0.223507  4 Ar pz         
    85     -0.223507  5 Ar pz               104     -0.223507  6 Ar pz         
   123      0.223507  7 Ar pz               142      0.223508  8 Ar pz         
     7     -0.115234  1 Ar px                26      0.115234  2 Ar px         
 
 Vector   73  Occ=0.000000D+00  E= 3.092230D-01
              MO Center=  2.0D-08,  2.0D-08,  2.1D-08, r^2= 8.8D+00
   Bfn.  Coefficient  Atom+Function         Bfn.  Coefficient  Atom+Function  
  ----- ------------  ---------------      ----- ------------  ---------------
    10      0.514329  1 Ar s                 29      0.514329  2 Ar s          
    48      0.514329  3 Ar s                 67      0.514329  4 Ar s          
    86      0.514329  5 Ar s                105      0.514329  6 Ar s          
   124      0.514329  7 Ar s                143      0.514329  8 Ar s          
     6     -0.397359  1 Ar s                 25     -0.397359  2 Ar s          
 
 Vector   74  Occ=0.000000D+00  E= 3.534383D-01
              MO Center=  1.3D-08, -3.9D-08,  1.9D-08, r^2= 1.0D+01
   Bfn.  Coefficient  Atom+Function         Bfn.  Coefficient  Atom+Function  
  ----- ------------  ---------------      ----- ------------  ---------------
    29      0.751134  2 Ar s                124     -0.751134  7 Ar s          
    67      0.708230  4 Ar s                 86     -0.708230  5 Ar s          
    25     -0.579330  2 Ar s                120      0.579330  7 Ar s          
    63     -0.546239  4 Ar s                 82      0.546239  5 Ar s          
    65      0.187333  4 Ar py                84      0.187333  5 Ar py         
 
 Vector   75  Occ=0.000000D+00  E= 3.534383D-01
              MO Center= -1.7D-08,  3.4D-08, -2.3D-08, r^2= 1.0D+01
   Bfn.  Coefficient  Atom+Function         Bfn.  Coefficient  Atom+Function  
  ----- ------------  ---------------      ----- ------------  ---------------
    48      0.842972  3 Ar s                105     -0.842972  6 Ar s          
    44     -0.650162  3 Ar s                101      0.650162  6 Ar s          
    67      0.458075  4 Ar s                 86     -0.458075  5 Ar s          
    29     -0.383671  2 Ar s                124      0.383671  7 Ar s          
    63     -0.353301  4 Ar s                 82      0.353301  5 Ar s          
 
 Vector   76  Occ=0.000000D+00  E= 3.534383D-01
              MO Center= -1.2D-07, -1.2D-07, -1.2D-07, r^2= 1.0D+01
   Bfn.  Coefficient  Atom+Function         Bfn.  Coefficient  Atom+Function  
  ----- ------------  ---------------      ----- ------------  ---------------
    10      0.894834  1 Ar s                143     -0.894834  8 Ar s          
     6     -0.690162  1 Ar s                139      0.690162  8 Ar s          
    29      0.298871  2 Ar s                 67     -0.298843  4 Ar s          
    86      0.298843  5 Ar s                124     -0.298871  7 Ar s          
    48      0.297120  3 Ar s                105     -0.297120  6 Ar s          
 
 Vector   77  Occ=0.000000D+00  E= 4.014503D-01
              MO Center=  3.7D-08,  5.2D-08,  7.3D-08, r^2= 1.3D+01
   Bfn.  Coefficient  Atom+Function         Bfn.  Coefficient  Atom+Function  
  ----- ------------  ---------------      ----- ------------  ---------------
    67      0.810008  4 Ar s                 86      0.810008  5 Ar s          
    48     -0.633769  3 Ar s                105     -0.633769  6 Ar s          
    63     -0.624350  4 Ar s                 82     -0.624350  5 Ar s          
    44      0.488506  3 Ar s                101      0.488506  6 Ar s          
     7     -0.201874  1 Ar px                11      0.201481  1 Ar px         
 
 Vector   78  Occ=0.000000D+00  E= 4.014503D-01
              MO Center=  7.2D-08,  5.7D-08,  3.5D-08, r^2= 1.3D+01
   Bfn.  Coefficient  Atom+Function         Bfn.  Coefficient  Atom+Function  
  ----- ------------  ---------------      ----- ------------  ---------------
    29      0.833515  2 Ar s                124      0.833515  7 Ar s          
    25     -0.642470  2 Ar s                120     -0.642470  7 Ar s          
    48     -0.569237  3 Ar s                105     -0.569237  6 Ar s          
    44      0.438765  3 Ar s                101      0.438765  6 Ar s          
    67     -0.264427  4 Ar s                 86     -0.264427  5 Ar s          
 
 Vector   79  Occ=0.000000D+00  E= 4.014503D-01
              MO Center= -5.9D-08, -5.9D-08, -5.9D-08, r^2= 1.3D+01
   Bfn.  Coefficient  Atom+Function         Bfn.  Coefficient  Atom+Function  
  ----- ------------  ---------------      ----- ------------  ---------------
    10      0.903618  1 Ar s                143      0.903618  8 Ar s          
     6     -0.696504  1 Ar s                139     -0.696504  8 Ar s          
    29     -0.301418  2 Ar s                 48     -0.301382  3 Ar s          
    67     -0.300817  4 Ar s                 86     -0.300817  5 Ar s          
   105     -0.301382  6 Ar s                124     -0.301418  7 Ar s          
 
 Vector   80  Occ=0.000000D+00  E= 4.330506D-01
              MO Center= -4.1D-08, -5.8D-08, -3.6D-08, r^2= 1.3D+01
   Bfn.  Coefficient  Atom+Function         Bfn.  Coefficient  Atom+Function  
  ----- ------------  ---------------      ----- ------------  ---------------
    13     -0.301577  1 Ar pz                32      0.301577  2 Ar pz         
    51     -0.301577  3 Ar pz                70      0.301577  4 Ar pz         
    89     -0.301577  5 Ar pz               108      0.301577  6 Ar pz         
   127     -0.301577  7 Ar pz               146      0.301577  8 Ar pz         
     9      0.297439  1 Ar pz                28     -0.297439  2 Ar pz         
 
 Vector   81  Occ=0.000000D+00  E= 4.330506D-01
              MO Center= -4.7D-08, -3.2D-08, -5.3D-08, r^2= 1.3D+01
   Bfn.  Coefficient  Atom+Function         Bfn.  Coefficient  Atom+Function  
  ----- ------------  ---------------      ----- ------------  ---------------
    12     -0.325140  1 Ar py                31     -0.325140  2 Ar py         
    50      0.325140  3 Ar py                69      0.325140  4 Ar py         
    88     -0.325140  5 Ar py               107     -0.325140  6 Ar py         
   126      0.325140  7 Ar py               145      0.325140  8 Ar py         
     8      0.320679  1 Ar py                27      0.320679  2 Ar py         
 
 Vector   82  Occ=0.000000D+00  E= 4.578332D-01
              MO Center=  2.0D-07,  2.0D-07,  2.0D-07, r^2= 1.7D+01
   Bfn.  Coefficient  Atom+Function         Bfn.  Coefficient  Atom+Function  
  ----- ------------  ---------------      ----- ------------  ---------------
    10      0.561141  1 Ar s                 29     -0.561141  2 Ar s          
    48     -0.561141  3 Ar s                 67      0.561141  4 Ar s          
    86     -0.561141  5 Ar s                105      0.561141  6 Ar s          
   124      0.561141  7 Ar s                143     -0.561141  8 Ar s          
     6     -0.432658  1 Ar s                 25      0.432658  2 Ar s          
 
 Vector   83  Occ=0.000000D+00  E= 4.584147D-01
              MO Center=  9.2D-10,  4.1D-10, -1.8D-08, r^2= 1.3D+01
   Bfn.  Coefficient  Atom+Function         Bfn.  Coefficient  Atom+Function  
  ----- ------------  ---------------      ----- ------------  ---------------
    51      0.352712  3 Ar pz                70     -0.352712  4 Ar pz         
    89     -0.352712  5 Ar pz               108      0.352712  6 Ar pz         
    47     -0.342735  3 Ar pz                66      0.342735  4 Ar pz         
    85      0.342735  5 Ar pz               104     -0.342735  6 Ar pz         
    30      0.322470  2 Ar px                31     -0.323451  2 Ar py         
 
 Vector   84  Occ=0.000000D+00  E= 4.584147D-01
              MO Center= -5.2D-08, -1.7D-08, -5.9D-08, r^2= 1.3D+01
   Bfn.  Coefficient  Atom+Function         Bfn.  Coefficient  Atom+Function  
  ----- ------------  ---------------      ----- ------------  ---------------
    13      0.366645  1 Ar pz                32     -0.366645  2 Ar pz         
   127     -0.366645  7 Ar pz               146      0.366645  8 Ar pz         
     9     -0.356274  1 Ar pz                28      0.356274  2 Ar pz         
   123      0.356274  7 Ar pz               142     -0.356274  8 Ar pz         
    11     -0.340065  1 Ar px                68      0.340065  4 Ar px         
 
 Vector   85  Occ=0.000000D+00  E= 4.584147D-01
              MO Center= -4.1D-08, -7.4D-08, -1.5D-08, r^2= 1.3D+01
   Bfn.  Coefficient  Atom+Function         Bfn.  Coefficient  Atom+Function  
  ----- ------------  ---------------      ----- ------------  ---------------
    12     -0.407150  1 Ar py                50      0.407150  3 Ar py         
   107      0.407150  6 Ar py               145     -0.407150  8 Ar py         
     8      0.395634  1 Ar py                46     -0.395634  3 Ar py         
   103     -0.395634  6 Ar py               141      0.395634  8 Ar py         
    11      0.225593  1 Ar px                68     -0.225593  4 Ar px         
 
 Vector   86  Occ=0.000000D+00  E= 4.721651D-01
              MO Center=  1.1D-08,  9.2D-09,  1.3D-08, r^2= 1.7D+01
   Bfn.  Coefficient  Atom+Function         Bfn.  Coefficient  Atom+Function  
  ----- ------------  ---------------      ----- ------------  ---------------
    10      0.316549  1 Ar s                 29      0.316549  2 Ar s          
    48      0.316549  3 Ar s                 67      0.316549  4 Ar s          
    86      0.316549  5 Ar s                105      0.316549  6 Ar s          
   124      0.316549  7 Ar s                143      0.316549  8 Ar s          
     6     -0.240017  1 Ar s                 25     -0.240017  2 Ar s          
 
 Vector   87  Occ=0.000000D+00  E= 4.882118D-01
              MO Center=  1.7D-08,  1.7D-08,  1.9D-08, r^2= 1.6D+01
   Bfn.  Coefficient  Atom+Function         Bfn.  Coefficient  Atom+Function  
  ----- ------------  ---------------      ----- ------------  ---------------
    10      0.487834  1 Ar s                143     -0.487834  8 Ar s          
     6     -0.371344  1 Ar s                139      0.371344  8 Ar s          
    11     -0.360441  1 Ar px                12     -0.360853  1 Ar py         
    13     -0.360972  1 Ar pz               144     -0.360441  8 Ar px         
   145     -0.360853  8 Ar py               146     -0.360972  8 Ar pz         
 
 Vector   88  Occ=0.000000D+00  E= 4.882118D-01
              MO Center=  1.6D-08,  4.6D-09,  7.4D-09, r^2= 1.6D+01
   Bfn.  Coefficient  Atom+Function         Bfn.  Coefficient  Atom+Function  
  ----- ------------  ---------------      ----- ------------  ---------------
    29      0.406425  2 Ar s                124     -0.406425  7 Ar s          
    48     -0.389665  3 Ar s                105      0.389665  6 Ar s          
    30     -0.368753  2 Ar px               125     -0.368753  7 Ar px         
    49      0.362354  3 Ar px               106      0.362354  6 Ar px         
    26      0.351690  2 Ar px               121      0.351690  7 Ar px         
 
 Vector   89  Occ=0.000000D+00  E= 4.882118D-01
              MO Center= -2.0D-10,  1.5D-08,  1.8D-08, r^2= 1.6D+01
   Bfn.  Coefficient  Atom+Function         Bfn.  Coefficient  Atom+Function  
  ----- ------------  ---------------      ----- ------------  ---------------
    67      0.460032  4 Ar s                 86     -0.460032  5 Ar s          
    70      0.364545  4 Ar pz                89      0.364545  5 Ar pz         
    69      0.356658  4 Ar py                88      0.356658  5 Ar py         
    63     -0.350180  4 Ar s                 82      0.350180  5 Ar s          
    66     -0.346889  4 Ar pz                85     -0.346889  5 Ar pz         
 
 Vector   90  Occ=0.000000D+00  E= 5.028519D-01
              MO Center= -9.4D-08, -9.6D-08, -1.0D-07, r^2= 1.5D+01
   Bfn.  Coefficient  Atom+Function         Bfn.  Coefficient  Atom+Function  
  ----- ------------  ---------------      ----- ------------  ---------------
    10      0.419590  1 Ar s                143      0.419590  8 Ar s          
     6     -0.320806  1 Ar s                139     -0.320806  8 Ar s          
    13     -0.316223  1 Ar pz               146      0.316223  8 Ar pz         
    11     -0.313801  1 Ar px                12     -0.315015  1 Ar py         
   144      0.313801  8 Ar px               145      0.315015  8 Ar py         
 
 Vector   91  Occ=0.000000D+00  E= 5.028519D-01
              MO Center=  2.4D-08,  1.9D-08,  6.0D-09, r^2= 1.5D+01
   Bfn.  Coefficient  Atom+Function         Bfn.  Coefficient  Atom+Function  
  ----- ------------  ---------------      ----- ------------  ---------------
    67      0.378823  4 Ar s                 86      0.378823  5 Ar s          
    68     -0.361984  4 Ar px                87      0.361984  5 Ar px         
    64      0.341547  4 Ar px                83     -0.341547  5 Ar px         
    49      0.330272  3 Ar px               106     -0.330272  6 Ar px         
    45     -0.312182  3 Ar px               102      0.312182  6 Ar px         
 
 Vector   92  Occ=0.000000D+00  E= 5.028519D-01
              MO Center=  1.3D-08,  1.9D-08,  2.5D-08, r^2= 1.5D+01
   Bfn.  Coefficient  Atom+Function         Bfn.  Coefficient  Atom+Function  
  ----- ------------  ---------------      ----- ------------  ---------------
    29      0.385189  2 Ar s                124      0.385189  7 Ar s          
    32      0.365954  2 Ar pz               127     -0.365954  7 Ar pz         
    28     -0.345271  2 Ar pz               123      0.345272  7 Ar pz         
    51      0.326698  3 Ar pz               108     -0.326698  6 Ar pz         
    47     -0.308922  3 Ar pz               104      0.308922  6 Ar pz         
 
 Vector   93  Occ=0.000000D+00  E= 6.013105D-01
              MO Center= -5.7D-08, -5.5D-08, -7.3D-08, r^2= 1.2D+01
   Bfn.  Coefficient  Atom+Function         Bfn.  Coefficient  Atom+Function  
  ----- ------------  ---------------      ----- ------------  ---------------
    12     -0.358971  1 Ar py               145     -0.358971  8 Ar py         
    31     -0.353966  2 Ar py               126     -0.353966  7 Ar py         
    30      0.335141  2 Ar px               125      0.335141  7 Ar px         
    11      0.330136  1 Ar px               144      0.330136  8 Ar px         
     8      0.317256  1 Ar py               141      0.317256  8 Ar py         
 
 Vector   94  Occ=0.000000D+00  E= 6.013105D-01
              MO Center= -6.7D-08, -7.2D-08, -5.4D-08, r^2= 1.2D+01
   Bfn.  Coefficient  Atom+Function         Bfn.  Coefficient  Atom+Function  
  ----- ------------  ---------------      ----- ------------  ---------------
    13      0.399983  1 Ar pz               146      0.399983  8 Ar pz         
    51      0.370277  3 Ar pz               108      0.370277  6 Ar pz         
    70      0.361606  4 Ar pz                89      0.361606  5 Ar pz         
     9     -0.353491  1 Ar pz               142     -0.353491  8 Ar pz         
    29     -0.332910  2 Ar s                 32      0.331899  2 Ar pz         
 
 Vector   95  Occ=0.000000D+00  E= 6.013105D-01
              MO Center= -1.8D-08, -2.6D-08, -2.3D-08, r^2= 1.2D+01
   Bfn.  Coefficient  Atom+Function         Bfn.  Coefficient  Atom+Function  
  ----- ------------  ---------------      ----- ------------  ---------------
    10      0.355327  1 Ar s                143     -0.355327  8 Ar s          
    50      0.308016  3 Ar py                68      0.308452  4 Ar px         
    87      0.308452  5 Ar px               107      0.308016  6 Ar py         
    32      0.303156  2 Ar pz               127      0.303156  7 Ar pz         
    46     -0.272567  3 Ar py                64     -0.272951  4 Ar px         
 
 Vector   96  Occ=0.000000D+00  E= 6.130485D-01
              MO Center=  6.2D-08,  2.5D-08,  5.2D-08, r^2= 1.3D+01
   Bfn.  Coefficient  Atom+Function         Bfn.  Coefficient  Atom+Function  
[...]
    3 Ar                  18.0000    -2.96171482     3.02063542    -3.00625774
    4 Ar                  18.0000    -3.00575909     2.94685964     2.96975038
    5 Ar                  18.0000     3.00415645    -2.94547992    -2.96832133
    6 Ar                  18.0000     2.96335489    -3.02196919     3.00768305
    7 Ar                  18.0000     3.00344096     3.02494325    -3.03924781
    8 Ar                  18.0000     2.97892924     2.95740215     2.93454498


  Geometry after -187.7% step for mode  4; Step length =  0.157 angstroms 
   Maximum component (any atom: x,y, or z) displacement:  0.100
    1 Ar                  18.0000    -2.99440706    -3.01606385    -3.03896993
    2 Ar                  18.0000    -2.97308009    -2.95144409     2.93711994
    3 Ar                  18.0000    -3.01322452     2.95431580    -2.96868565
    4 Ar                  18.0000    -2.96917255     3.02808728     3.00519301
    5 Ar                  18.0000     2.97079085    -3.02945475    -3.00661574
    6 Ar                  18.0000     3.01159144    -2.95296005     2.96725366
    7 Ar                  18.0000     2.97149807     2.94999068    -2.93567572
    8 Ar                  18.0000     2.99600385     3.01752897     3.04038043





 ===============================================================================
      Negative Nuclear Hessian Mode    5  Eigenvalue =     -0.77 cm**(-1)
 -------------------------------------------------------------------------------
   Raw step length:  0.084 angstroms ;  The Raw step for this mode is:
    1 Ar                  18.0000     0.00128562    -0.02332388     0.00778887
    2 Ar                  18.0000    -0.02840259    -0.00377037     0.00403670
    3 Ar                  18.0000     0.02624915    -0.01956462     0.01974615
    4 Ar                  18.0000     0.00089379    -0.00757497     0.02344836
    5 Ar                  18.0000    -0.00086517     0.00774650    -0.02335732
    6 Ar                  18.0000    -0.02625172     0.01934599    -0.01965926
    7 Ar                  18.0000     0.02835050     0.00395099    -0.00412528
    8 Ar                  18.0000    -0.00125958     0.02319036    -0.00787822


  Geometry after  100.0% step for mode  5; Step length =  0.084 angstroms 
   Maximum component (any atom: x,y, or z) displacement:  0.054
    1 Ar                  18.0000    -2.98618864    -3.01080006    -2.97968789
    2 Ar                  18.0000    -3.01587573    -2.99124384     2.99151270
    3 Ar                  18.0000    -2.96122052     2.96791099    -2.96772555
    4 Ar                  18.0000    -2.98657203     2.97989849     3.01092006
    5 Ar                  18.0000     2.98660849    -2.97972084    -3.01082586
    6 Ar                  18.0000     2.96122145    -2.96811863     2.96780910
    7 Ar                  18.0000     3.01582001     2.99141796    -2.99158705
    8 Ar                  18.0000     2.98620697     3.01065592     2.97958449


  Geometry after -100.0% step for mode  5; Step length =  0.084 angstroms 
   Maximum component (any atom: x,y, or z) displacement:  0.054
    1 Ar                  18.0000    -2.98875988    -2.96415230    -2.99526562
    2 Ar                  18.0000    -2.95907054    -2.98370309     2.98343929
    3 Ar                  18.0000    -3.01371882     3.00704023    -3.00721785
    4 Ar                  18.0000    -2.98835961     2.99504843     2.96402334
    5 Ar                  18.0000     2.98833882    -2.99521384    -2.96411121
    6 Ar                  18.0000     3.01372488    -3.00681061     3.00712761
    7 Ar                  18.0000     2.95911902     2.98351598    -2.98333649
    8 Ar                  18.0000     2.98872613     2.96427520     2.99534093


  Geometry after   50.0% step for mode  5; Step length =  0.042 angstroms 
   Maximum component (any atom: x,y, or z) displacement:  0.027
    1 Ar                  18.0000    -2.98683145    -2.99913812    -2.98358232
    2 Ar                  18.0000    -3.00167443    -2.98935865     2.98949435
    3 Ar                  18.0000    -2.97434510     2.97769330    -2.97759862
    4 Ar                  18.0000    -2.98701892     2.98368598     2.99919588
    5 Ar                  18.0000     2.98704107    -2.98359409    -2.99914720
    6 Ar                  18.0000     2.97434731    -2.97779162     2.97763873
    7 Ar                  18.0000     3.00164476     2.98944247    -2.98952441
    8 Ar                  18.0000     2.98683676     2.99906074     2.98352360


  Geometry after  -50.0% step for mode  5; Step length =  0.042 angstroms 
   Maximum component (any atom: x,y, or z) displacement:  0.027
    1 Ar                  18.0000    -2.98811707    -2.97581424    -2.99137119
    2 Ar                  18.0000    -2.97327184    -2.98558828     2.98545764
    3 Ar                  18.0000    -3.00059425     2.99725792    -2.99734477
    4 Ar                  18.0000    -2.98791271     2.99126095     2.97574752
    5 Ar                  18.0000     2.98790624    -2.99134059    -2.97578987
    6 Ar                  18.0000     3.00059902    -2.99713762     2.99729798
    7 Ar                  18.0000     2.97329427     2.98549147    -2.98539913
    8 Ar                  18.0000     2.98809634     2.97587038     2.99140182


  Geometry after  372.6% step for mode  5; Step length =  0.312 angstroms 
   Maximum component (any atom: x,y, or z) displacement:  0.200
    1 Ar                  18.0000    -2.98268371    -3.07438703    -2.95845342
    2 Ar                  18.0000    -3.09330858    -3.00152286     3.00251780
    3 Ar                  18.0000    -2.88965850     2.91457273    -2.91389241
    4 Ar                  18.0000    -2.98413532     2.95924716     3.07484639
    5 Ar                  18.0000     2.98424981    -2.95860187    -3.07450400
    6 Ar                  18.0000     2.88965245    -2.91537642     2.91421285
    7 Ar                  18.0000     3.09311084     3.00218939    -3.00283364
    8 Ar                  18.0000     2.98277302     3.07387889     2.95810641


  Geometry after -372.6% step for mode  5; Step length =  0.312 angstroms 
   Maximum component (any atom: x,y, or z) displacement:  0.200
    1 Ar                  18.0000    -2.99226481    -2.90056534    -3.01650010
    2 Ar                  18.0000    -2.88163768    -2.97342407     2.97243419
    3 Ar                  18.0000    -3.08528084     3.06037849    -3.06105099
    4 Ar                  18.0000    -2.99079631     3.01569977     2.90009700
    5 Ar                  18.0000     2.99069750    -3.01633281    -2.90043307
    6 Ar                  18.0000     3.08529388    -3.05955282     3.06072386
    7 Ar                  18.0000     2.88182819     2.97274454    -2.97208990
    8 Ar                  18.0000     2.99216007     2.90105223     3.01681900


  Geometry after  186.3% step for mode  5; Step length =  0.156 angstroms 
   Maximum component (any atom: x,y, or z) displacement:  0.100
    1 Ar                  18.0000    -2.98507898    -3.03093161    -2.97296509
    2 Ar                  18.0000    -3.04039086    -2.99449816     2.99499690
    3 Ar                  18.0000    -2.93856409     2.95102417    -2.95068205
    4 Ar                  18.0000    -2.98580057     2.97336031     3.03115904
    5 Ar                  18.0000     2.98586173    -2.97303460    -3.03098627
    6 Ar                  18.0000     2.93856281    -2.95142052     2.95084061
    7 Ar                  18.0000     3.04029018     2.99482818    -2.99514770
    8 Ar                  18.0000     2.98511979     3.03067222     2.97278456


  Geometry after -186.3% step for mode  5; Step length =  0.156 angstroms 
   Maximum component (any atom: x,y, or z) displacement:  0.100
    1 Ar                  18.0000    -2.98986953    -2.94402076    -3.00198843
    2 Ar                  18.0000    -2.93455541    -2.98044877     2.97995510
    3 Ar                  18.0000    -3.03637525     3.02392705    -3.02426134
    4 Ar                  18.0000    -2.98913107     3.00158661     2.94378435
    5 Ar                  18.0000     2.98908558    -3.00190007    -2.94395080
    6 Ar                  18.0000     3.03638352    -3.02350872     3.02409611
    7 Ar                  18.0000     2.93464885     2.98010576    -2.97977583
    8 Ar                  18.0000     2.98981331     2.94425890     3.00214085





 ===============================================================================
      Negative Nuclear Hessian Mode    6  Eigenvalue =     -0.60 cm**(-1)
 -------------------------------------------------------------------------------
   Raw step length:  0.084 angstroms ;  The Raw step for this mode is:
    1 Ar                  18.0000    -0.01722341    -0.01738177    -0.01778167
    2 Ar                  18.0000     0.01732742     0.01748379    -0.01772642
    3 Ar                  18.0000     0.01673169    -0.01748691     0.01727324
    4 Ar                  18.0000    -0.01682003     0.01759315     0.01722328
    5 Ar                  18.0000    -0.01733747     0.01657719     0.01692376
    6 Ar                  18.0000     0.01744171    -0.01666306     0.01694510
    7 Ar                  18.0000     0.01681763     0.01665227    -0.01641909
    8 Ar                  18.0000    -0.01693754    -0.01677464    -0.01643821


  Geometry after  100.0% step for mode  6; Step length =  0.084 angstroms 
   Maximum component (any atom: x,y, or z) displacement:  0.034
    1 Ar                  18.0000    -3.00469767    -3.00485796    -3.00525842
    2 Ar                  18.0000    -2.97014571    -2.96998968     2.96974957
    3 Ar                  18.0000    -2.97073798     2.96998870    -2.97019845
    4 Ar                  18.0000    -3.00428585     3.00506661     3.00469498
    5 Ar                  18.0000     2.97013618    -2.97089015    -2.97054478
    6 Ar                  18.0000     3.00491487    -3.00412768     3.00441346
    7 Ar                  18.0000     3.00428715     3.00411924    -3.00388086
    8 Ar                  18.0000     2.97052901     2.97069092     2.97102450


  Geometry after -100.0% step for mode  6; Step length =  0.084 angstroms 
   Maximum component (any atom: x,y, or z) displacement:  0.034
    1 Ar                  18.0000    -2.97025085    -2.97009441    -2.96969509
    2 Ar                  18.0000    -3.00480056    -3.00495725     3.00520242
    3 Ar                  18.0000    -3.00420136     3.00496252    -3.00474494
    4 Ar                  18.0000    -2.97064578     2.96988032     2.97024841
    5 Ar                  18.0000     3.00481112    -3.00404452    -3.00439229
    6 Ar                  18.0000     2.97003146    -2.97080156     2.97052325
    7 Ar                  18.0000     2.97065188     2.97081470    -2.97104268
    8 Ar                  18.0000     3.00440408     3.00424020     3.00390091


  Geometry after   50.0% step for mode  6; Step length =  0.042 angstroms 
   Maximum component (any atom: x,y, or z) displacement:  0.017
    1 Ar                  18.0000    -2.99608596    -2.99616707    -2.99636759
    2 Ar                  18.0000    -2.97880942    -2.97873157     2.97861279
    3 Ar                  18.0000    -2.97910383     2.97873216    -2.97883508
    4 Ar                  18.0000    -2.99587584     2.99627004     2.99608334
    5 Ar                  18.0000     2.97880492    -2.97917874    -2.97900666
    6 Ar                  18.0000     2.99619402    -2.99579615     2.99594091
    7 Ar                  18.0000     2.99587833     2.99579310    -2.99567131
    8 Ar                  18.0000     2.97899778     2.97907824     2.97924360


  Geometry after  -50.0% step for mode  6; Step length =  0.042 angstroms 
   Maximum component (any atom: x,y, or z) displacement:  0.017
    1 Ar                  18.0000    -2.97886255    -2.97878530    -2.97858592
    2 Ar                  18.0000    -2.99613685    -2.99621536     2.99633921
    3 Ar                  18.0000    -2.99583552     2.99621907    -2.99610832
    4 Ar                  18.0000    -2.97905580     2.97867689     2.97886006
    5 Ar                  18.0000     2.99614239    -2.99575593    -2.99593041
    6 Ar                  18.0000     2.97875231    -2.97913309     2.97899580
    7 Ar                  18.0000     2.97906070     2.97914083    -2.97925222
    8 Ar                  18.0000     2.99593532     2.99585288     2.99568181


  Geometry after  595.2% step for mode  6; Step length =  0.498 angstroms 
   Maximum component (any atom: x,y, or z) displacement:  0.200
    1 Ar                  18.0000    -3.08998701    -3.09093150    -3.09331221
    2 Ar                  18.0000    -2.88434132    -2.88341098     2.88196937
    3 Ar                  18.0000    -2.88788364     2.88339454    -2.88466235
    4 Ar                  18.0000    -3.08757768     3.09218684     3.08998368
    5 Ar                  18.0000     2.88428204    -2.88880088    -2.88673933
    6 Ar                  18.0000     3.09128520    -3.08664219     3.08832462
    7 Ar                  18.0000     3.08756708     3.08658030    -3.08518724
    8 Ar                  18.0000     2.88665533     2.88762387     2.88962346


  Geometry after -595.2% step for mode  6; Step length =  0.498 angstroms 
   Maximum component (any atom: x,y, or z) displacement:  0.200
    1 Ar                  18.0000    -2.88496151    -2.88402087    -2.88164131
    2 Ar                  18.0000    -3.09060495    -3.09153594     3.09298262
    3 Ar                  18.0000    -3.08705570     3.09155668    -3.09028105
    4 Ar                  18.0000    -2.88735395     2.88276008     2.88495971
    5 Ar                  18.0000     3.09066526    -3.08613379    -3.08819774
    6 Ar                  18.0000     2.88366113    -2.88828705     2.88661209
    7 Ar                  18.0000     2.88737195     2.88835364    -2.88973629
    8 Ar                  18.0000     3.08827777     3.08730725     3.08530196


  Geometry after  297.6% step for mode  6; Step length =  0.249 angstroms 
   Maximum component (any atom: x,y, or z) displacement:  0.100
    1 Ar                  18.0000    -3.03873063    -3.03920384    -3.04039448
    2 Ar                  18.0000    -2.93590723    -2.93544222     2.93472268
    3 Ar                  18.0000    -2.93767665     2.93543507    -2.93606702
    4 Ar                  18.0000    -3.03752175     3.03983015     3.03872769
    5 Ar                  18.0000     2.93587785    -2.93813411    -2.93710393
    6 Ar                  18.0000     3.03937918    -3.03705341     3.03789649
    7 Ar                  18.0000     3.03751830     3.03702363    -3.03632451
    8 Ar                  18.0000     2.93706094     2.93754472     2.93854308


  Geometry after -297.6% step for mode  6; Step length =  0.249 angstroms 
   Maximum component (any atom: x,y, or z) displacement:  0.100
    1 Ar                  18.0000    -2.93621788    -2.93574853    -2.93455903
    2 Ar                  18.0000    -3.03903904    -3.03950470     3.04022931
    3 Ar                  18.0000    -3.03726269     3.03951615    -3.03887637
    4 Ar                  18.0000    -2.93740989     2.93511677     2.93621571
    5 Ar                  18.0000     3.03906946    -3.03680056    -3.03783314
    6 Ar                  18.0000     2.93556715    -2.93787583     2.93704023
    7 Ar                  18.0000     2.93742073     2.93791030    -2.93859903
    8 Ar                  18.0000     3.03787216     3.03738641     3.03638233


 vib:animation  F

 Task  times  cpu:       36.0s     wall:       44.5s
 
 
                                NWChem Input Module
                                -------------------
 
 
 Summary of allocated global arrays
-----------------------------------
  No active global arrays


MA_summarize_allocated_blocks: starting scan ...
MA_summarize_allocated_blocks: scan completed: 0 heap blocks, 0 stack blocks
MA usage statistics:

	allocation statistics:
					      heap	     stack
					      ----	     -----
	current number of blocks	         0	         0
	maximum number of blocks	        25	        54
	current total bytes		         0	         0
	maximum total bytes		  62146864	  89024920
	maximum total K-bytes		     62147	     89025
	maximum total M-bytes		        63	        90
 
 
                                     CITATION
                                     --------
                Please cite the following reference when publishing
                           results obtained with NWChem:
 
          E. Apra, E. J. Bylaska, W. A. de Jong, N. Govind, K. Kowalski,
       T. P. Straatsma, M. Valiev, H. J. J. van Dam, Y. Alexeev, J. Anchell,
       V. Anisimov, F. W. Aquino, R. Atta-Fynn, J. Autschbach, N. P. Bauman,
     J. C. Becca, D. E. Bernholdt, K. Bhaskaran-Nair, S. Bogatko, P. Borowski,
         J. Boschen, J. Brabec, A. Bruner, E. Cauet, Y. Chen, G. N. Chuev,
      C. J. Cramer, J. Daily, M. J. O. Deegan, T. H. Dunning Jr., M. Dupuis,
   K. G. Dyall, G. I. Fann, S. A. Fischer, A. Fonari, H. Fruchtl, L. Gagliardi,
      J. Garza, N. Gawande, S. Ghosh, K. Glaesemann, A. W. Gotz, J. Hammond,
       V. Helms, E. D. Hermes, K. Hirao, S. Hirata, M. Jacquelin, L. Jensen,
   B. G. Johnson, H. Jonsson, R. A. Kendall, M. Klemm, R. Kobayashi, V. Konkov,
      S. Krishnamoorthy, M. Krishnan, Z. Lin, R. D. Lins, R. J. Littlefield,
      A. J. Logsdail, K. Lopata, W. Ma, A. V. Marenich, J. Martin del Campo,
   D. Mejia-Rodriguez, J. E. Moore, J. M. Mullin, T. Nakajima, D. R. Nascimento,
    J. A. Nichols, P. J. Nichols, J. Nieplocha, A. Otero-de-la-Roza, B. Palmer,
    A. Panyala, T. Pirojsirikul, B. Peng, R. Peverati, J. Pittner, L. Pollack,
   R. M. Richard, P. Sadayappan, G. C. Schatz, W. A. Shelton, D. W. Silverstein,
   D. M. A. Smith, T. A. Soares, D. Song, M. Swart, H. L. Taylor, G. S. Thomas,
            V. Tipparaju, D. G. Truhlar, K. Tsemekhman, T. Van Voorhis,
      A. Vazquez-Mayagoitia, P. Verma, O. Villa, A. Vishnu, K. D. Vogiatzis,
        D. Wang, J. H. Weare, M. J. Williamson, T. L. Windus, K. Wolinski,
        A. T. Wong, Q. Wu, C. Yang, Q. Yu, M. Zacharias, Z. Zhang, Y. Zhao,
                                and R. J. Harrison
                        "NWChem: Past, present, and future
                         J. Chem. Phys. 152, 184102 (2020)
                               doi:10.1063/5.0004997
 
                                      AUTHORS
                                      -------
  E. Apra, E. J. Bylaska, N. Govind, K. Kowalski, M. Valiev, D. Mejia-Rodriguez,
       A. Kunitsa, N. P. Bauman, A. Panyala, W. A. de Jong, T. P. Straatsma,
   H. J. J. van Dam, D. Wang, T. L. Windus, J. Hammond, J. Autschbach, A. Woods,
    K. Bhaskaran-Nair, J. Brabec, K. Lopata, S. A. Fischer, S. Krishnamoorthy,
     M. Jacquelin, W. Ma, M. Klemm, O. Villa, Y. Chen, V. Anisimov, F. Aquino,
     S. Hirata, M. T. Hackler, E. Hermes, L. Jensen, J. E. Moore, J. C. Becca,
      V. Konjkov, T. Risthaus, M. Malagoli, A. Marenich, A. Otero-de-la-Roza,
        J. Mullin, P. Nichols, R. Peverati, J. Pittner, Y. Zhao, P.-D. Fan,
        A. Fonari, M. J. Williamson, R. J. Harrison, J. R. Rehr, M. Dupuis,
     D. Silverstein, D. M. A. Smith, J. Nieplocha, V. Tipparaju, M. Krishnan,
     B. E. Van Kuiken, A. Vazquez-Mayagoitia, M. Swart, Q. Wu, T. Van Voorhis,
     A. A. Auer, M. Nooijen, L. D. Crosby, E. Brown, G. Cisneros, G. I. Fann,
   H. Fruchtl, J. Garza, K. Hirao, R. A. Kendall, J. A. Nichols, K. Tsemekhman,
    K. Wolinski, J. Anchell, D. E. Bernholdt, P. Borowski, T. Clark, D. Clerc,
   H. Dachsel, M. J. O. Deegan, K. Dyall, D. Elwood, E. Glendening, M. Gutowski,
   A. C. Hess, J. Jaffe, B. G. Johnson, J. Ju, R. Kobayashi, R. Kutteh, Z. Lin,
   R. Littlefield, X. Long, B. Meng, T. Nakajima, S. Niu, L. Pollack, M. Rosing,
   K. Glaesemann, G. Sandrone, M. Stave, H. Taylor, G. Thomas, J. H. van Lenthe,
                               A. T. Wong, Z. Zhang.

 Total times  cpu:      156.1s     wall:      181.5s
