 argument  1 = benzene-mull.nw
 


============================== echo of input deck ==============================
start benzene
title "benzene mulliken"
echo

geometry units angstrom
  C  1.400000  0.000000  0.000000
  C  0.700000  1.212436  0.000000
  C  -0.700000  1.212436  0.000000
  C  -1.400000  0.000000  0.000000
  C  -0.700000  -1.212436  0.000000
  C  0.700000  -1.212436  0.000000
  H  2.480000  0.000000  0.000000
  H  1.240000  2.147743  0.000000
  H  -1.240000  2.147743  0.000000
  H  -2.480000  0.000000  0.000000
  H  -1.240000  -2.147743  0.000000
  H  1.240000  -2.147743  0.000000
end

charge 0

basis
  * library 6-31g*
end

dft
  xc b3lyp
  grid xfine
  mulliken
end

driver
  maxiter 200
end

task dft optimize
task dft freq
================================================================================


                                         
                                         
 
 
             Northwest Computational Chemistry Package (NWChem) 7.2.2
             --------------------------------------------------------
 
 
                    Environmental Molecular Sciences Laboratory
                       Pacific Northwest National Laboratory
                                Richland, WA 99352
 
                              Copyright (c) 1994-2022
                       Pacific Northwest National Laboratory
                            Battelle Memorial Institute
 
             NWChem is an open-source computational chemistry package
                        distributed under the terms of the
                      Educational Community License (ECL) 2.0
             A copy of the license is included with this distribution
                              in the LICENSE.TXT file
 
                                  ACKNOWLEDGMENT
                                  --------------

            This software and its documentation were developed at the
            EMSL at Pacific Northwest National Laboratory, a multiprogram
            national laboratory, operated for the U.S. Department of Energy
            by Battelle under Contract Number DE-AC05-76RL01830. Support
            for this work was provided by the Department of Energy Office
            of Biological and Environmental Research, Office of Basic
            Energy Sciences, and the Office of Advanced Scientific Computing.


           Job information
           ---------------

    hostname        = charliebox
    program         = /apps/nwchem/bin/nwchem
    date            = Tue Oct 21 15:18:41 2025

    compiled        = Tue_Apr_23_01:04:59_2024
    source          = /apps/nwchem-7.2.2-release
    nwchem branch   = 7.2.2
    nwchem revision = N/A
    ga revision     = 5.8.0
    use scalapack   = T
    input           = benzene-mull.nw
    prefix          = benzene.
    data base       = ./benzene.db
    status          = startup
    nproc           =        7
    time left       =     -1s



           Memory information
           ------------------

    heap     =   26214394 doubles =    200.0 Mbytes
    stack    =   26214399 doubles =    200.0 Mbytes
    global   =   52428800 doubles =    400.0 Mbytes (distinct from heap & stack)
    total    =  104857593 doubles =    800.0 Mbytes
    verify   = yes
    hardfail = no 


           Directory information
           ---------------------
 
  0 permanent = .
  0 scratch   = .
 
 
 
 
                                NWChem Input Module
                                -------------------
 
 
                                 benzene mulliken
                                 ----------------

 Scaling coordinates for geometry "geometry" by  1.889725989
 (inverse scale =  0.529177249)

 D6H symmetry detected

          ------
          auto-z
          ------
  no constraints, skipping   0.000000000000000E+000
  no constraints, skipping   0.000000000000000E+000
 
 
                             Geometry "geometry" -> ""
                             -------------------------
 
 Output coordinates in angstroms (scale by  1.889725989 to convert to a.u.)
 
  No.       Tag          Charge          X              Y              Z
 ---- ---------------- ---------- -------------- -------------- --------------
    1 C                    6.0000     0.98994967     0.98994967     0.00000000
    2 C                    6.0000    -0.36234673     1.35229640     0.00000000
    3 C                    6.0000    -1.35229640     0.36234673     0.00000000
    4 C                    6.0000    -0.98994967    -0.98994967     0.00000000
    5 C                    6.0000     0.36234673    -1.35229640     0.00000000
    6 C                    6.0000     1.35229640    -0.36234673     0.00000000
    7 H                    1.0000     1.75362482     1.75362482     0.00000000
    8 H                    1.0000    -0.64187123     2.39549605     0.00000000
    9 H                    1.0000    -2.39549605     0.64187123     0.00000000
   10 H                    1.0000    -1.75362482    -1.75362482     0.00000000
   11 H                    1.0000     0.64187123    -2.39549605     0.00000000
   12 H                    1.0000     2.39549605    -0.64187123     0.00000000
 
      Atomic Mass 
      ----------- 
 
      C                 12.000000
      H                  1.007825
 

 Effective nuclear repulsion energy (a.u.)     202.9678377951

            Nuclear Dipole moment (a.u.) 
            ----------------------------
        X                 Y               Z
 ---------------- ---------------- ----------------
     0.0000000000    -0.0000000000     0.0000000000
 
      Symmetry information
      --------------------
 
 Group name             D6h       
 Group number             30
 Group order              24
 No. of unique centers     2
 
      Symmetry unique atoms
 
     1    7
 


                                Z-matrix (autoz)
                                -------- 

 Units are Angstrom for bonds and degrees for angles
 
      Type          Name      I     J     K     L     M      Value
      ----------- --------  ----- ----- ----- ----- ----- ----------
    1 Stretch                  1     2                       1.40000
    2 Stretch                  1     6                       1.40000
    3 Stretch                  1     7                       1.08000
    4 Stretch                  2     3                       1.40000
    5 Stretch                  2     8                       1.08000
    6 Stretch                  3     4                       1.40000
    7 Stretch                  3     9                       1.08000
    8 Stretch                  4     5                       1.40000
    9 Stretch                  4    10                       1.08000
   10 Stretch                  5     6                       1.40000
   11 Stretch                  5    11                       1.08000
   12 Stretch                  6    12                       1.08000
   13 Bend                     1     2     3               120.00000
   14 Bend                     1     2     8               120.00000
   15 Bend                     1     6     5               120.00000
   16 Bend                     1     6    12               120.00000
   17 Bend                     2     1     6               120.00000
   18 Bend                     2     1     7               120.00000
   19 Bend                     2     3     4               120.00000
   20 Bend                     2     3     9               120.00000
   21 Bend                     3     2     8               120.00000
   22 Bend                     3     4     5               120.00000
   23 Bend                     3     4    10               120.00000
   24 Bend                     4     3     9               120.00000
   25 Bend                     4     5     6               120.00000
   26 Bend                     4     5    11               120.00000
   27 Bend                     5     4    10               120.00000
   28 Bend                     5     6    12               120.00000
   29 Bend                     6     1     7               120.00000
   30 Bend                     6     5    11               120.00000
   31 Torsion                  1     2     3     4           0.00000
   32 Torsion                  1     2     3     9         180.00000
   33 Torsion                  1     6     5     4           0.00000
   34 Torsion                  1     6     5    11         180.00000
   35 Torsion                  2     1     6     5           0.00000
   36 Torsion                  2     1     6    12         180.00000
   37 Torsion                  2     3     4     5           0.00000
   38 Torsion                  2     3     4    10         180.00000
   39 Torsion                  3     2     1     6           0.00000
   40 Torsion                  3     2     1     7         180.00000
   41 Torsion                  3     4     5     6           0.00000
   42 Torsion                  3     4     5    11         180.00000
   43 Torsion                  4     3     2     8         180.00000
   44 Torsion                  4     5     6    12         180.00000
   45 Torsion                  5     4     3     9         180.00000
   46 Torsion                  5     6     1     7         180.00000
   47 Torsion                  6     1     2     8         180.00000
   48 Torsion                  6     5     4    10         180.00000
   49 Torsion                  7     1     2     8           0.00000
   50 Torsion                  7     1     6    12           0.00000
   51 Torsion                  8     2     3     9           0.00000
   52 Torsion                  9     3     4    10           0.00000
   53 Torsion                 10     4     5    11           0.00000
   54 Torsion                 11     5     6    12           0.00000
 
 
            XYZ format geometry
            -------------------
    12
 geometry
 C                     0.98994967     0.98994967     0.00000000
 C                    -0.36234673     1.35229640     0.00000000
 C                    -1.35229640     0.36234673     0.00000000
 C                    -0.98994967    -0.98994967     0.00000000
 C                     0.36234673    -1.35229640     0.00000000
 C                     1.35229640    -0.36234673     0.00000000
 H                     1.75362482     1.75362482     0.00000000
 H                    -0.64187123     2.39549605     0.00000000
 H                    -2.39549605     0.64187123     0.00000000
 H                    -1.75362482    -1.75362482     0.00000000
 H                     0.64187123    -2.39549605     0.00000000
 H                     2.39549605    -0.64187123     0.00000000
 
 ==============================================================================
                                internuclear distances
 ------------------------------------------------------------------------------
       center one      |      center two      | atomic units |  angstroms
 ------------------------------------------------------------------------------
    2 C                |   1 C                |     2.64562  |     1.40000
    3 C                |   2 C                |     2.64562  |     1.40000
    4 C                |   3 C                |     2.64562  |     1.40000
    5 C                |   4 C                |     2.64562  |     1.40000
    6 C                |   1 C                |     2.64562  |     1.40000
    6 C                |   5 C                |     2.64562  |     1.40000
    7 H                |   1 C                |     2.04090  |     1.08000
    8 H                |   2 C                |     2.04090  |     1.08000
    9 H                |   3 C                |     2.04090  |     1.08000
   10 H                |   4 C                |     2.04090  |     1.08000
   11 H                |   5 C                |     2.04090  |     1.08000
   12 H                |   6 C                |     2.04090  |     1.08000
 ------------------------------------------------------------------------------
                         number of included internuclear distances:         12
 ==============================================================================



 ==============================================================================
                                 internuclear angles
 ------------------------------------------------------------------------------
        center 1       |       center 2       |       center 3       |  degrees
 ------------------------------------------------------------------------------
    2 C                |   1 C                |   6 C                |   120.00
    2 C                |   1 C                |   7 H                |   120.00
    6 C                |   1 C                |   7 H                |   120.00
    1 C                |   2 C                |   3 C                |   120.00
    1 C                |   2 C                |   8 H                |   120.00
    3 C                |   2 C                |   8 H                |   120.00
    2 C                |   3 C                |   4 C                |   120.00
    2 C                |   3 C                |   9 H                |   120.00
    4 C                |   3 C                |   9 H                |   120.00
    3 C                |   4 C                |   5 C                |   120.00
    3 C                |   4 C                |  10 H                |   120.00
    5 C                |   4 C                |  10 H                |   120.00
    4 C                |   5 C                |   6 C                |   120.00
    4 C                |   5 C                |  11 H                |   120.00
    6 C                |   5 C                |  11 H                |   120.00
    1 C                |   6 C                |   5 C                |   120.00
    1 C                |   6 C                |  12 H                |   120.00
    5 C                |   6 C                |  12 H                |   120.00
 ------------------------------------------------------------------------------
                            number of included internuclear angles:         18
 ==============================================================================



  library name resolved from: environment
  library file name is: </apps/nwchem/data/libraries/>
  


 Summary of "ao basis" -> "" (cartesian)
 ------------------------------------------------------------------------------
       Tag                 Description            Shells   Functions and Types
 ---------------- ------------------------------  ------  ---------------------
 *                           6-31g*                   on all atoms 


 
 
                           NWChem Geometry Optimization
                           ----------------------------
 
 
 
 
                                 benzene mulliken
 
 
  no constraints, skipping   0.000000000000000E+000
 maximum gradient threshold         (gmax) =   0.000450
 rms gradient threshold             (grms) =   0.000300
 maximum cartesian step threshold   (xmax) =   0.001800
 rms cartesian step threshold       (xrms) =   0.001200
 fixed trust radius                (trust) =   0.300000
 maximum step size to saddle      (sadstp) =   0.100000
 energy precision                  (eprec) =   5.0D-06
 maximum number of steps          (nptopt) =  200
 initial hessian option           (inhess) =    0
 line search option               (linopt) =    1
 hessian update option            (modupd) =    1
 saddle point option              (modsad) =    0
 initial eigen-mode to follow     (moddir) =    0
 initial variable to follow       (vardir) =    0
 follow first negative mode     (firstneg) =    T
 apply conjugacy                    (opcg) =    F
 source of zmatrix                         =   autoz   


          -------------------
          Energy Minimization
          -------------------

 
 Names of Z-matrix variables 
    1              2              3              4              5         
    6              7              8              9             10         
   11             12             13             14             15         
   16             17             18             19             20         
   21             22             23             24             25         
   26             27             28             29             30         
   31             32             33             34             35         
   36             37             38             39             40         
   41             42             43             44             45         
   46             47             48             49             50         
   51             52             53             54         
 
 Variables with the same non-blank name are constrained to be equal
 
 
 Using old Hessian from previous optimization

          --------
          Step   0
          --------
 
 
                         Geometry "geometry" -> "geometry"
                         ---------------------------------
 
 Output coordinates in angstroms (scale by  1.889725989 to convert to a.u.)
 
  No.       Tag          Charge          X              Y              Z
 ---- ---------------- ---------- -------------- -------------- --------------
    1 C                    6.0000     0.98994967     0.98994967     0.00000000
    2 C                    6.0000    -0.36234673     1.35229640     0.00000000
    3 C                    6.0000    -1.35229640     0.36234673     0.00000000
    4 C                    6.0000    -0.98994967    -0.98994967     0.00000000
    5 C                    6.0000     0.36234673    -1.35229640     0.00000000
    6 C                    6.0000     1.35229640    -0.36234673     0.00000000
    7 H                    1.0000     1.75362482     1.75362482     0.00000000
    8 H                    1.0000    -0.64187123     2.39549605     0.00000000
    9 H                    1.0000    -2.39549605     0.64187123     0.00000000
   10 H                    1.0000    -1.75362482    -1.75362482     0.00000000
   11 H                    1.0000     0.64187123    -2.39549605     0.00000000
   12 H                    1.0000     2.39549605    -0.64187123     0.00000000
 
      Atomic Mass 
      ----------- 
 
      C                 12.000000
      H                  1.007825
 

 Effective nuclear repulsion energy (a.u.)     202.9678377951

            Nuclear Dipole moment (a.u.) 
            ----------------------------
        X                 Y               Z
 ---------------- ---------------- ----------------
     0.0000000000    -0.0000000000     0.0000000000
 
      Symmetry information
      --------------------
 
 Group name             D6h       
 Group number             30
 Group order              24
 No. of unique centers     2
 
      Symmetry unique atoms
 
     1    7
 
 
                                 NWChem DFT Module
                                 -----------------
 
 
                                 benzene mulliken
 
 
                      Basis "ao basis" -> "ao basis" (cartesian)
                      -----
  C (Carbon)
  ----------
            Exponent  Coefficients 
       -------------- ---------------------------------------------------------
  1 S  3.04752490E+03  0.001835
  1 S  4.57369510E+02  0.014037
  1 S  1.03948690E+02  0.068843
  1 S  2.92101550E+01  0.232184
  1 S  9.28666300E+00  0.467941
  1 S  3.16392700E+00  0.362312
 
  2 S  7.86827240E+00 -0.119332
  2 S  1.88128850E+00 -0.160854
  2 S  5.44249300E-01  1.143456
 
  3 P  7.86827240E+00  0.068999
  3 P  1.88128850E+00  0.316424
  3 P  5.44249300E-01  0.744308
 
  4 S  1.68714400E-01  1.000000
 
  5 P  1.68714400E-01  1.000000
 
  6 D  8.00000000E-01  1.000000
 
  H (Hydrogen)
  ------------
            Exponent  Coefficients 
       -------------- ---------------------------------------------------------
  1 S  1.87311370E+01  0.033495
  1 S  2.82539370E+00  0.234727
  1 S  6.40121700E-01  0.813757
 
  2 S  1.61277800E-01  1.000000
 


 Summary of "ao basis" -> "ao basis" (cartesian)
 ------------------------------------------------------------------------------
       Tag                 Description            Shells   Functions and Types
 ---------------- ------------------------------  ------  ---------------------
 C                           6-31g*                  6       15   3s2p1d
 H                           6-31g*                  2        2   2s




 Summary of "ao basis" -> "ao basis" (cartesian)
 ------------------------------------------------------------------------------
       Tag                 Description            Shells   Functions and Types
 ---------------- ------------------------------  ------  ---------------------
 C                           6-31g*                  6       15   3s2p1d
 H                           6-31g*                  2        2   2s


      Symmetry analysis of basis
      --------------------------
 
        a1g        10
        a1u         1
        a2g         3
        a2u         3
        b1g         1
        b1u        10
        b2g         3
        b2u         3
        e1g         8
        e1u        26
        e2g        26
        e2u         8
 
  Caching 1-el integrals 
 
            General Information
            -------------------
          SCF calculation type: DFT
          Wavefunction type:  closed shell.
          No. of atoms     :    12
          No. of electrons :    42
           Alpha electrons :    21
            Beta electrons :    21
          Charge           :     0
          Spin multiplicity:     1
          Use of symmetry is: on ; symmetry adaption is: on 
          Maximum number of iterations:  50
          AO basis - number of functions:   102
                     number of shells:    48
          Convergence on energy requested:  1.00D-06
          Convergence on density requested:  1.00D-05
          Convergence on gradient requested:  5.00D-04
 
              XC Information
              --------------
                         B3LYP Method XC Potential
                     Hartree-Fock (Exact) Exchange  0.200          
                        Slater Exchange Functional  0.800 local    
                    Becke 1988 Exchange Functional  0.720 non-local
              Lee-Yang-Parr Correlation Functional  0.810          
                  VWN I RPA Correlation Functional  0.190 local    
 
             Grid Information
             ----------------
          Grid used for XC integration:  xfine     
          Radial quadrature: Mura-Knowles        
          Angular quadrature: Lebedev. 
          Tag              B.-S. Rad. Rad. Pts. Rad. Cut. Ang. Pts.
          ---              ---------- --------- --------- ---------
          C                   0.70      100          11.0      1454
          H                   0.35      100          12.0      1202
          Grid pruning is: on 
          Number of quadrature shells:   200
          Spatial weights used:  Erf1
 
          Convergence Information
          -----------------------
          Convergence aids based upon iterative change in 
          total energy or number of iterations. 
          Levelshifting, if invoked, occurs when the 
          HOMO/LUMO gap drops below (HL_TOL):  1.00D-02
          DIIS, if invoked, will attempt to extrapolate 
          using up to (NFOCK): 10 stored Fock matrices.

                    Damping( 0%)  Levelshifting(0.5)       DIIS
                  --------------- ------------------- ---------------
          dE  on:    start            ASAP                start   
          dE off:    2 iters         50 iters            50 iters 

 
      Screening Tolerance Information
      -------------------------------
          Density screening/tol_rho:  1.00D-10
          AO Gaussian exp screening on grid/accAOfunc:  14
          CD Gaussian exp screening on grid/accCDfunc:  20
          XC Gaussian exp screening on grid/accXCfunc:  20
          Schwarz screening/accCoul:  1.00D-08

 
      Superposition of Atomic Density Guess
      -------------------------------------
 
 Sum of atomic energies:        -228.95092013
 
      Non-variational initial energy
      ------------------------------

 Total energy =    -233.098312
 1-e energy   =    -708.337538
 2-e energy   =     272.271387
 HOMO         =      -0.287229
 LUMO         =       0.008326
 
 
      Symmetry analysis of molecular orbitals - initial
      -------------------------------------------------
 
  Numbering of irreducible representations: 
 
     1 a1g         2 a1u         3 a2g         4 a2u         5 b1g     
     6 b1u         7 b2g         8 b2u         9 e1g        10 e1u     
    11 e2g        12 e2u     
 
  Orbital symmetries:
 
     1 a1g         2 e1u         3 e1u         4 e2g         5 e2g     
     6 b1u         7 a1g         8 e1u         9 e1u        10 e2g     
    11 e2g        12 a1g        13 b1u        14 b2u        15 e1u     
    16 e1u        17 a2u        18 e2g        19 e2g        20 e1g     
    21 e1g        22 e2u        23 e2u        24 a1g        25 b2g     
    26 e1u        27 e1u        28 e2g        29 e2g        30 b1u     
    31 e2g     
 
  WARNING: movecs_in_org=atomic not equal to movecs_in=./benzene.movecs
   Time after variat. SCF:      0.4

     ---------------------------------------------
      Total Density - Mulliken Population Analysis
     ---------------------------------------------

    Atom       Charge   Shell Charges
 -----------   ------   -------------------------------------------------------
    1 C    6     6.22   2.00  0.74  1.93  0.53  0.98  0.03
    2 C    6     6.22   2.00  0.74  1.93  0.53  0.98  0.03
    3 C    6     6.22   2.00  0.74  1.93  0.53  0.98  0.03
    4 C    6     6.22   2.00  0.74  1.93  0.53  0.98  0.03
    5 C    6     6.22   2.00  0.74  1.93  0.53  0.98  0.03
    6 C    6     6.22   2.00  0.74  1.93  0.53  0.98  0.03
    7 H    1     0.78   0.47  0.31
    8 H    1     0.78   0.47  0.31
    9 H    1     0.78   0.47  0.31
   10 H    1     0.78   0.47  0.31
   11 H    1     0.78   0.47  0.31
   12 H    1     0.78   0.47  0.31
   Time prior to 1st pass:      0.4

 Integral file          = ./benzene.aoints.0
 Record size in doubles =  65536        No. of integs per rec  =  43688
 Max. records in memory =      6        Max. records in file   = 610321
 No. of bits per label  =      8        No. of bits per value  =     64


 #quartets = 6.850D+04 #integrals = 8.317D+05 #direct =  0.0% #cached =100.0%


File balance: exchanges=     0  moved=     0  time=   0.0


 Grid_pts file          = ./benzene.gridpts.0
 Record size in doubles =  12289        No. of grid_pts per rec  =   3070
 Max. records in memory =     16        Max. recs in file   =   3254764

 Grid integrated density:      42.000001150227
 Requested integration accuracy:   0.10E-07

           Memory utilization after 1st SCF pass: 
           Heap Space remaining (MW):       25.62            25619106
          Stack Space remaining (MW):       26.21            26213548

   convergence    iter        energy       DeltaE   RMS-Dens  Diis-err    time
 ---------------- ----- ----------------- --------- --------- ---------  ------
 d= 0,ls=0.0,diis     1   -232.1901815319 -4.35D+02  6.57D-03  6.15D-01     0.6
 Grid integrated density:      42.000001167773
 Requested integration accuracy:   0.10E-07
 d= 0,ls=0.0,diis     2   -232.2468540374 -5.67D-02  1.39D-03  1.11D-02     0.6
 Grid integrated density:      42.000001169163
 Requested integration accuracy:   0.10E-07
 d= 0,ls=0.0,diis     3   -232.2482075860 -1.35D-03  3.20D-04  1.52D-03     0.7
 d= 0,ls=0.0,diis     4   -232.2483944801 -1.87D-04  8.51D-05  4.43D-05     0.7
 d= 0,ls=0.0,diis     5   -232.2483990516 -4.57D-06  2.73D-05  1.22D-05     0.8
  Resetting Diis
 d= 0,ls=0.0,diis     6   -232.2484006108 -1.56D-06  5.40D-07  4.39D-09     0.9
 d= 0,ls=0.0,diis     7   -232.2484006114 -6.38D-10  3.39D-08  3.05D-12     0.9


         Total DFT energy =     -232.248400611434
      One electron energy =     -713.345939011547
           Coulomb energy =      312.902635473724
    Exchange-Corr. energy =      -34.772934868682
 Nuclear repulsion energy =      202.967837795070

 Numeric. integr. density =       41.999999955164

     Total iterative time =      0.5s


 
                  Occupations of the irreducible representations
                  ----------------------------------------------
 
                     irrep           alpha         beta
                     --------     --------     --------
                     a1g               3.0          3.0
                     a1u               0.0          0.0
                     a2g               0.0          0.0
                     a2u               1.0          1.0
                     b1g               0.0          0.0
                     b1u               2.0          2.0
                     b2g               0.0          0.0
                     b2u               1.0          1.0
                     e1g               2.0          2.0
                     e1u               6.0          6.0
                     e2g               6.0          6.0
                     e2u               0.0          0.0
 
 
                       DFT Final Molecular Orbital Analysis
                       ------------------------------------
 
 Vector    1  Occ=2.000000D+00  E=-1.018759D+01  Symmetry=a1g
              MO Center=  2.1D-16, -9.0D-17,  1.2D-39, r^2= 2.0D+00
   Bfn.  Coefficient  Atom+Function         Bfn.  Coefficient  Atom+Function  
  ----- ------------  ---------------      ----- ------------  ---------------
     1      0.405135   1 C  s                16      0.405135   2 C  s         
    31      0.405135   3 C  s                46      0.405135   4 C  s         
    61      0.405135   5 C  s                76      0.405135   6 C  s         
 
 Vector    2  Occ=2.000000D+00  E=-1.018733D+01  Symmetry=e1u
              MO Center= -6.2D-12, -1.1D-12, -7.7D-22, r^2= 2.0D+00
   Bfn.  Coefficient  Atom+Function         Bfn.  Coefficient  Atom+Function  
  ----- ------------  ---------------      ----- ------------  ---------------
    31      0.528025   3 C  s                76     -0.528025   6 C  s         
     1     -0.456905   1 C  s                46      0.456905   4 C  s         
    16      0.071120   2 C  s                61     -0.071120   5 C  s         
    32      0.026189   3 C  s                77     -0.026189   6 C  s         
 
 Vector    3  Occ=2.000000D+00  E=-1.018733D+01  Symmetry=e1u
              MO Center=  6.6D-19,  3.2D-16, -1.7D-34, r^2= 2.0D+00
   Bfn.  Coefficient  Atom+Function         Bfn.  Coefficient  Atom+Function  
  ----- ------------  ---------------      ----- ------------  ---------------
    16      0.568649   2 C  s                61     -0.568649   5 C  s         
     1      0.345917   1 C  s                46     -0.345917   4 C  s         
    31      0.222733   3 C  s                76     -0.222733   6 C  s         
    17      0.028204   2 C  s                62     -0.028204   5 C  s         
 
 Vector    4  Occ=2.000000D+00  E=-1.018679D+01  Symmetry=e2g
              MO Center=  1.9D-12,  3.5D-12,  4.0D-34, r^2= 2.0D+00
   Bfn.  Coefficient  Atom+Function         Bfn.  Coefficient  Atom+Function  
  ----- ------------  ---------------      ----- ------------  ---------------
     1      0.537409   1 C  s                46      0.537409   4 C  s         
    16     -0.441597   2 C  s                61     -0.441597   5 C  s         
    31     -0.095813   3 C  s                76     -0.095813   6 C  s         
     2      0.027068   1 C  s                47      0.027068   4 C  s         
 
 Vector    5  Occ=2.000000D+00  E=-1.018679D+01  Symmetry=e2g
              MO Center=  3.4D-12, -1.9D-12,  1.2D-18, r^2= 2.0D+00
   Bfn.  Coefficient  Atom+Function         Bfn.  Coefficient  Atom+Function  
  ----- ------------  ---------------      ----- ------------  ---------------
    31      0.565229   3 C  s                76      0.565229   6 C  s         
    16     -0.365591   2 C  s                61     -0.365591   5 C  s         
     1     -0.199639   1 C  s                46     -0.199639   4 C  s         
    32      0.028469   3 C  s                77      0.028469   6 C  s         
 
 Vector    6  Occ=2.000000D+00  E=-1.018653D+01  Symmetry=b1u
              MO Center=  9.8D-13, -4.5D-13,  9.7D-22, r^2= 2.0D+00
   Bfn.  Coefficient  Atom+Function         Bfn.  Coefficient  Atom+Function  
  ----- ------------  ---------------      ----- ------------  ---------------
     1      0.405557   1 C  s                16     -0.405557   2 C  s         
    31      0.405557   3 C  s                46     -0.405557   4 C  s         
    61      0.405557   5 C  s                76     -0.405557   6 C  s         
 
 Vector    7  Occ=2.000000D+00  E=-8.445837D-01  Symmetry=a1g
              MO Center=  2.9D-17,  1.3D-16, -9.3D-33, r^2= 2.1D+00
   Bfn.  Coefficient  Atom+Function         Bfn.  Coefficient  Atom+Function  
  ----- ------------  ---------------      ----- ------------  ---------------
     2      0.179723   1 C  s                17      0.179723   2 C  s         
    32      0.179723   3 C  s                47      0.179723   4 C  s         
    62      0.179723   5 C  s                77      0.179723   6 C  s         
     6      0.114434   1 C  s                21      0.114434   2 C  s         
    36      0.114434   3 C  s                51      0.114434   4 C  s         
 
 Vector    8  Occ=2.000000D+00  E=-7.394020D-01  Symmetry=e1u
              MO Center= -1.3D-16, -8.5D-18,  2.2D-33, r^2= 2.9D+00
   Bfn.  Coefficient  Atom+Function         Bfn.  Coefficient  Atom+Function  
  ----- ------------  ---------------      ----- ------------  ---------------
     2      0.254646   1 C  s                47     -0.254646   4 C  s         
     6      0.189933   1 C  s                51     -0.189933   4 C  s         
    32     -0.162406   3 C  s                77      0.162406   6 C  s         
     1     -0.128937   1 C  s                46      0.128937   4 C  s         
    36     -0.121134   3 C  s                81      0.121134   6 C  s         
 
 Vector    9  Occ=2.000000D+00  E=-7.394020D-01  Symmetry=e1u
              MO Center=  1.8D-16, -1.4D-16,  1.5D-32, r^2= 2.9D+00
   Bfn.  Coefficient  Atom+Function         Bfn.  Coefficient  Atom+Function  
  ----- ------------  ---------------      ----- ------------  ---------------
    17      0.240785   2 C  s                62     -0.240785   5 C  s         
    32      0.200275   3 C  s                77     -0.200275   6 C  s         
    21      0.179595   2 C  s                66     -0.179595   5 C  s         
    36      0.149379   3 C  s                81     -0.149379   6 C  s         
    16     -0.121919   2 C  s                61      0.121919   5 C  s         
 
 Vector   10  Occ=2.000000D+00  E=-5.980368D-01  Symmetry=e2g
              MO Center=  1.6D-16,  8.0D-17,  8.7D-33, r^2= 3.7D+00
   Bfn.  Coefficient  Atom+Function         Bfn.  Coefficient  Atom+Function  
  ----- ------------  ---------------      ----- ------------  ---------------
    17      0.199621   2 C  s                62      0.199621   5 C  s         
    32     -0.162120   3 C  s                77     -0.162120   6 C  s         
    21      0.151909   2 C  s                66      0.151909   5 C  s         
     3     -0.150012   1 C  px               48      0.150012   4 C  px        
     4      0.131923   1 C  py               49     -0.131923   4 C  py        
 
 Vector   11  Occ=2.000000D+00  E=-5.980368D-01  Symmetry=e2g
              MO Center= -1.3D-16,  4.1D-17,  2.3D-33, r^2= 3.7D+00
   Bfn.  Coefficient  Atom+Function         Bfn.  Coefficient  Atom+Function  
  ----- ------------  ---------------      ----- ------------  ---------------
     2      0.208851   1 C  s                47      0.208851   4 C  s         
    18      0.190406   2 C  px               63     -0.190406   5 C  px        
    34     -0.161564   3 C  py               79      0.161564   6 C  py        
     6      0.158934   1 C  s                51      0.158934   4 C  s         
    32     -0.136902   3 C  s                77     -0.136902   6 C  s         
 
 Vector   12  Occ=2.000000D+00  E=-5.189943D-01  Symmetry=a1g
              MO Center=  1.9D-15, -2.8D-16, -9.2D-20, r^2= 4.1D+00
   Bfn.  Coefficient  Atom+Function         Bfn.  Coefficient  Atom+Function  
  ----- ------------  ---------------      ----- ------------  ---------------
    19      0.192701   2 C  py               33     -0.192701   3 C  px        
    64     -0.192701   5 C  py               78      0.192701   6 C  px        
     3      0.141067   1 C  px                4      0.141067   1 C  py        
    48     -0.141067   4 C  px               49     -0.141067   4 C  py        
    91      0.108568   7 H  s                93      0.108568   8 H  s         
 
 Vector   13  Occ=2.000000D+00  E=-4.620225D-01  Symmetry=b1u
              MO Center=  4.0D-17, -3.9D-17, -1.0D-32, r^2= 5.2D+00
   Bfn.  Coefficient  Atom+Function         Bfn.  Coefficient  Atom+Function  
  ----- ------------  ---------------      ----- ------------  ---------------
     6      0.162474   1 C  s                21     -0.162474   2 C  s         
    36      0.162474   3 C  s                51     -0.162474   4 C  s         
    66      0.162474   5 C  s                81     -0.162474   6 C  s         
    91      0.140802   7 H  s                93     -0.140802   8 H  s         
    95      0.140802   9 H  s                97     -0.140802  10 H  s         
 
 Vector   14  Occ=2.000000D+00  E=-4.368914D-01  Symmetry=b2u
              MO Center= -1.9D-15,  1.8D-16, -2.7D-19, r^2= 2.7D+00
   Bfn.  Coefficient  Atom+Function         Bfn.  Coefficient  Atom+Function  
  ----- ------------  ---------------      ----- ------------  ---------------
    18      0.265444   2 C  px               34     -0.265444   3 C  py        
    63      0.265444   5 C  px               79     -0.265444   6 C  py        
     3     -0.194318   1 C  px                4      0.194318   1 C  py        
    48     -0.194318   4 C  px               49      0.194318   4 C  py        
    22      0.089858   2 C  px               38     -0.089858   3 C  py        
 
 Vector   15  Occ=2.000000D+00  E=-4.177938D-01  Symmetry=e1u
              MO Center=  3.0D-14,  3.1D-15,  9.7D-18, r^2= 4.0D+00
   Bfn.  Coefficient  Atom+Function         Bfn.  Coefficient  Atom+Function  
  ----- ------------  ---------------      ----- ------------  ---------------
     4      0.225034   1 C  py               49      0.225034   4 C  py        
     3      0.196224   1 C  px               48      0.196224   4 C  px        
    33      0.187739   3 C  px               78      0.187739   6 C  px        
    91      0.161525   7 H  s                97     -0.161525  10 H  s         
    92      0.153028   7 H  s                98     -0.153028  10 H  s         
 
 Vector   16  Occ=2.000000D+00  E=-4.177938D-01  Symmetry=e1u
              MO Center= -7.6D-16,  1.3D-15,  1.2D-31, r^2= 4.0D+00
   Bfn.  Coefficient  Atom+Function         Bfn.  Coefficient  Atom+Function  
  ----- ------------  ---------------      ----- ------------  ---------------
    19      0.290262   2 C  py               64      0.290262   5 C  py        
    33     -0.229933   3 C  px               78     -0.229933   6 C  px        
    93      0.159382   8 H  s                99     -0.159382  11 H  s         
    94      0.150997   8 H  s               100     -0.150997  11 H  s         
    95      0.120387   9 H  s               101     -0.120387  12 H  s         
 
 Vector   17  Occ=2.000000D+00  E=-3.580169D-01  Symmetry=a2u
              MO Center= -1.2D-16,  5.5D-16,  3.2D-19, r^2= 2.7D+00
   Bfn.  Coefficient  Atom+Function         Bfn.  Coefficient  Atom+Function  
  ----- ------------  ---------------      ----- ------------  ---------------
     5      0.221904   1 C  pz               20      0.221904   2 C  pz        
    35      0.221904   3 C  pz               50      0.221904   4 C  pz        
    65      0.221904   5 C  pz               80      0.221904   6 C  pz        
     9      0.129303   1 C  pz               24      0.129303   2 C  pz        
    39      0.129303   3 C  pz               54      0.129303   4 C  pz        
 
 Vector   18  Occ=2.000000D+00  E=-3.409029D-01  Symmetry=e2g
              MO Center= -2.9D-14, -5.0D-15,  2.4D-30, r^2= 4.1D+00
   Bfn.  Coefficient  Atom+Function         Bfn.  Coefficient  Atom+Function  
  ----- ------------  ---------------      ----- ------------  ---------------
    34      0.265014   3 C  py               79     -0.265014   6 C  py        
     4      0.248671   1 C  py               49     -0.248671   4 C  py        
    19     -0.227270   2 C  py               64      0.227270   5 C  py        
    94     -0.191038   8 H  s               100     -0.191038  11 H  s         
    93     -0.167055   8 H  s                99     -0.167055  11 H  s         
 
 Vector   19  Occ=2.000000D+00  E=-3.409029D-01  Symmetry=e2g
              MO Center= -2.1D-16,  1.2D-15, -2.5D-30, r^2= 4.1D+00
   Bfn.  Coefficient  Atom+Function         Bfn.  Coefficient  Atom+Function  
  ----- ------------  ---------------      ----- ------------  ---------------
    18     -0.266700   2 C  px               63      0.266700   5 C  px        
     3      0.245299   1 C  px               48     -0.245299   4 C  px        
    33      0.228956   3 C  px               78     -0.228956   6 C  px        
    96     -0.183279   9 H  s               102     -0.183279  12 H  s         
    95     -0.160270   9 H  s               101     -0.160270  12 H  s         
 
 Vector   20  Occ=2.000000D+00  E=-2.456262D-01  Symmetry=e1g
              MO Center= -5.3D-16,  9.7D-16, -1.5D-16, r^2= 3.0D+00
   Bfn.  Coefficient  Atom+Function         Bfn.  Coefficient  Atom+Function  
  ----- ------------  ---------------      ----- ------------  ---------------
    35      0.339254   3 C  pz               80     -0.339254   6 C  pz        
    39      0.244171   3 C  pz               84     -0.244171   6 C  pz        
    20      0.182087   2 C  pz               65     -0.182087   5 C  pz        
     5     -0.157167   1 C  pz               50      0.157167   4 C  pz        
    24      0.131053   2 C  pz               69     -0.131053   5 C  pz        
 
 Vector   21  Occ=2.000000D+00  E=-2.456262D-01  Symmetry=e1g
              MO Center= -2.0D-16, -5.4D-16, -5.0D-18, r^2= 3.0D+00
   Bfn.  Coefficient  Atom+Function         Bfn.  Coefficient  Atom+Function  
  ----- ------------  ---------------      ----- ------------  ---------------
     5      0.300997   1 C  pz               50     -0.300997   4 C  pz        
    20      0.286609   2 C  pz               65     -0.286609   5 C  pz        
     9      0.216636   1 C  pz               54     -0.216636   4 C  pz        
    24      0.206281   2 C  pz               69     -0.206281   5 C  pz        
    44      0.031414   3 C  dyz              89      0.031414   6 C  dyz       
 
 Vector   22  Occ=0.000000D+00  E= 3.035186D-03  Symmetry=e2u
              MO Center=  3.0D-16,  1.1D-16, -2.5D-18, r^2= 3.4D+00
   Bfn.  Coefficient  Atom+Function         Bfn.  Coefficient  Atom+Function  
  ----- ------------  ---------------      ----- ------------  ---------------
    24      0.460851   2 C  pz               69      0.460851   5 C  pz        
    39     -0.357370   3 C  pz               84     -0.357370   6 C  pz        
    20      0.347446   2 C  pz               65      0.347446   5 C  pz        
    35     -0.269430   3 C  pz               80     -0.269430   6 C  pz        
     9     -0.103480   1 C  pz               54     -0.103480   4 C  pz        
 
 Vector   23  Occ=0.000000D+00  E= 3.035186D-03  Symmetry=e2u
              MO Center= -2.8D-16, -1.7D-15,  7.0D-16, r^2= 3.4D+00
   Bfn.  Coefficient  Atom+Function         Bfn.  Coefficient  Atom+Function  
  ----- ------------  ---------------      ----- ------------  ---------------
     9      0.472400   1 C  pz               54      0.472400   4 C  pz        
     5      0.356154   1 C  pz               50      0.356154   4 C  pz        
    39     -0.325817   3 C  pz               84     -0.325817   6 C  pz        
    35     -0.245641   3 C  pz               80     -0.245641   6 C  pz        
    24     -0.146584   2 C  pz               69     -0.146584   5 C  pz        
 
 Vector   24  Occ=0.000000D+00  E= 9.340194D-02  Symmetry=a1g
              MO Center= -1.0D-13, -5.9D-14,  5.8D-19, r^2= 8.3D+00
   Bfn.  Coefficient  Atom+Function         Bfn.  Coefficient  Atom+Function  
  ----- ------------  ---------------      ----- ------------  ---------------
    92      0.740278   7 H  s                94      0.740278   8 H  s         
    96      0.740278   9 H  s                98      0.740278  10 H  s         
   100      0.740278  11 H  s               102      0.740278  12 H  s         
     6     -0.519967   1 C  s                21     -0.519967   2 C  s         
    36     -0.519967   3 C  s                51     -0.519967   4 C  s         
 
 Vector   25  Occ=0.000000D+00  E= 1.467296D-01  Symmetry=e1u
              MO Center= -2.0D-14,  5.2D-14,  6.5D-18, r^2= 8.9D+00
   Bfn.  Coefficient  Atom+Function         Bfn.  Coefficient  Atom+Function  
  ----- ------------  ---------------      ----- ------------  ---------------
    94      1.147690   8 H  s               100     -1.147690  11 H  s         
    96      0.985706   9 H  s               102     -0.985706  12 H  s         
    21     -0.908746   2 C  s                66      0.908746   5 C  s         
    36     -0.780486   3 C  s                81      0.780486   6 C  s         
    23     -0.564238   2 C  py               68     -0.564238   5 C  py        
 
 Vector   26  Occ=0.000000D+00  E= 1.467296D-01  Symmetry=e1u
              MO Center=  6.5D-14,  1.1D-13, -3.1D-17, r^2= 8.9D+00
   Bfn.  Coefficient  Atom+Function         Bfn.  Coefficient  Atom+Function  
  ----- ------------  ---------------      ----- ------------  ---------------
    92      1.231717   7 H  s                98     -1.231717  10 H  s         
     6     -0.975279   1 C  s                51      0.975279   4 C  s         
    96     -0.756141   9 H  s               102      0.756141  12 H  s         
    36      0.598715   3 C  s                81     -0.598715   6 C  s         
    94      0.475576   8 H  s               100     -0.475576  11 H  s         
 
 Vector   27  Occ=0.000000D+00  E= 1.622932D-01  Symmetry=b2g
              MO Center=  6.4D-16,  3.2D-16,  2.6D-22, r^2= 3.6D+00
   Bfn.  Coefficient  Atom+Function         Bfn.  Coefficient  Atom+Function  
  ----- ------------  ---------------      ----- ------------  ---------------
     9      0.536416   1 C  pz               24     -0.536416   2 C  pz        
    39      0.536416   3 C  pz               54     -0.536416   4 C  pz        
    69      0.536416   5 C  pz               84     -0.536416   6 C  pz        
     5      0.291730   1 C  pz               20     -0.291730   2 C  pz        
    35      0.291730   3 C  pz               50     -0.291730   4 C  pz        
 
 Vector   28  Occ=0.000000D+00  E= 1.824643D-01  Symmetry=e2g
              MO Center=  1.5D-14, -3.8D-14, -3.7D-17, r^2= 8.7D+00
   Bfn.  Coefficient  Atom+Function         Bfn.  Coefficient  Atom+Function  
  ----- ------------  ---------------      ----- ------------  ---------------
    36      1.606035   3 C  s                81      1.606035   6 C  s         
    96     -1.263820   9 H  s               102     -1.263820  12 H  s         
    21     -0.816614   2 C  s                66     -0.816614   5 C  s         
     6     -0.789421   1 C  s                51     -0.789421   4 C  s         
    94      0.642609   8 H  s               100      0.642609  11 H  s         
 
 Vector   29  Occ=0.000000D+00  E= 1.824643D-01  Symmetry=e2g
              MO Center=  1.7D-13,  4.6D-13, -1.6D-16, r^2= 8.7D+00
   Bfn.  Coefficient  Atom+Function         Bfn.  Coefficient  Atom+Function  
  ----- ------------  ---------------      ----- ------------  ---------------
     6      1.398717   1 C  s                51      1.398717   4 C  s         
    21     -1.383017   2 C  s                66     -1.383017   5 C  s         
    92     -1.100677   7 H  s                98     -1.100677  10 H  s         
    94      1.088323   8 H  s               100      1.088323  11 H  s         
    23     -0.503567   2 C  py               68      0.503567   5 C  py        
 
 Vector   30  Occ=0.000000D+00  E= 1.917334D-01  Symmetry=b1u
              MO Center= -1.4D-13, -4.9D-13,  2.7D-16, r^2= 9.9D+00
   Bfn.  Coefficient  Atom+Function         Bfn.  Coefficient  Atom+Function  
  ----- ------------  ---------------      ----- ------------  ---------------
    92      1.234029   7 H  s                94     -1.234029   8 H  s         
    96      1.234029   9 H  s                98     -1.234029  10 H  s         
   100      1.234029  11 H  s               102     -1.234029  12 H  s         
    23      1.207203   2 C  py               37      1.207203   3 C  px        
    68      1.207203   5 C  py               82      1.207203   6 C  px        
 
 Vector   31  Occ=0.000000D+00  E= 3.020187D-01  Symmetry=e2g
              MO Center=  2.6D-13, -1.6D-13, -1.1D-17, r^2= 5.4D+00
   Bfn.  Coefficient  Atom+Function         Bfn.  Coefficient  Atom+Function  
  ----- ------------  ---------------      ----- ------------  ---------------
    21      1.765761   2 C  s                66      1.765761   5 C  s         
    23     -1.465761   2 C  py               36     -1.458470   3 C  s         
    68      1.465761   5 C  py               81     -1.458470   6 C  s         
    37     -1.285442   3 C  px               82      1.285442   6 C  px        
    94      0.925083   8 H  s               100      0.925083  11 H  s         
 
 Vector   32  Occ=0.000000D+00  E= 3.020187D-01  Symmetry=e2g
              MO Center= -3.1D-13, -1.4D-14, -1.0D-16, r^2= 5.4D+00
   Bfn.  Coefficient  Atom+Function         Bfn.  Coefficient  Atom+Function  
  ----- ------------  ---------------      ----- ------------  ---------------
     6      1.861511   1 C  s                51      1.861511   4 C  s         
    36     -1.196877   3 C  s                81     -1.196877   6 C  s         
     8     -1.168884   1 C  py               53      1.168884   4 C  py        
     7     -0.975133   1 C  px               52      0.975133   4 C  px        
    92      0.975247   7 H  s                98      0.975247  10 H  s         
 
 Vector   33  Occ=0.000000D+00  E= 3.172089D-01  Symmetry=e1u
              MO Center= -1.5D-13,  2.7D-13,  1.3D-18, r^2= 4.9D+00
   Bfn.  Coefficient  Atom+Function         Bfn.  Coefficient  Atom+Function  
  ----- ------------  ---------------      ----- ------------  ---------------
     6      1.919645   1 C  s                51     -1.919645   4 C  s         
    22     -1.644279   2 C  px               67     -1.644279   5 C  px        
    38     -1.528269   3 C  py               83     -1.528269   6 C  py        
    36     -1.058570   3 C  s                81      1.058570   6 C  s         
    21      0.861075   2 C  s                66     -0.861075   5 C  s         
 
 Vector   34  Occ=0.000000D+00  E= 3.172089D-01  Symmetry=e1u
              MO Center=  2.0D-13, -1.3D-13, -2.5D-17, r^2= 4.9D+00
   Bfn.  Coefficient  Atom+Function         Bfn.  Coefficient  Atom+Function  
  ----- ------------  ---------------      ----- ------------  ---------------
    21      1.719473   2 C  s                66     -1.719473   5 C  s         
    36      1.605449   3 C  s                81     -1.605449   6 C  s         
     8     -1.371627   1 C  py               53     -1.371627   4 C  py        
     7      1.354565   1 C  px               52      1.354565   4 C  px        
    38     -1.070762   3 C  py               83     -1.070762   6 C  py        
 
 Vector   35  Occ=0.000000D+00  E= 4.759743D-01  Symmetry=b2u
              MO Center= -1.0D-14,  2.7D-17,  2.7D-31, r^2= 5.2D+00
   Bfn.  Coefficient  Atom+Function         Bfn.  Coefficient  Atom+Function  
  ----- ------------  ---------------      ----- ------------  ---------------
    22      0.484020   2 C  px               38     -0.484020   3 C  py        
    67      0.484020   5 C  px               83     -0.484020   6 C  py        
     7     -0.354327   1 C  px                8      0.354327   1 C  py        
    52     -0.354327   4 C  px               53      0.354327   4 C  py        
    18     -0.318038   2 C  px               34      0.318038   3 C  py        
 
 Vector   36  Occ=0.000000D+00  E= 5.279888D-01  Symmetry=a2u
              MO Center= -1.3D-17,  7.1D-17, -5.3D-19, r^2= 3.6D+00
   Bfn.  Coefficient  Atom+Function         Bfn.  Coefficient  Atom+Function  
  ----- ------------  ---------------      ----- ------------  ---------------
     5      0.425369   1 C  pz               20      0.425369   2 C  pz        
    35      0.425369   3 C  pz               50      0.425369   4 C  pz        
    65      0.425369   5 C  pz               80      0.425369   6 C  pz        
     9     -0.305418   1 C  pz               24     -0.305418   2 C  pz        
    39     -0.305418   3 C  pz               54     -0.305418   4 C  pz        
 
 Vector   37  Occ=0.000000D+00  E= 5.461675D-01  Symmetry=b1u
              MO Center=  5.8D-14, -1.5D-14,  5.3D-17, r^2= 4.6D+00
   Bfn.  Coefficient  Atom+Function         Bfn.  Coefficient  Atom+Function  
  ----- ------------  ---------------      ----- ------------  ---------------
     6      3.648996   1 C  s                21     -3.648996   2 C  s         
    36      3.648996   3 C  s                51     -3.648996   4 C  s         
    66      3.648996   5 C  s                81     -3.648996   6 C  s         
    23      2.685067   2 C  py               37      2.685067   3 C  px        
    68      2.685067   5 C  py               82      2.685067   6 C  px        
 
 Vector   38  Occ=0.000000D+00  E= 5.490113D-01  Symmetry=a1g
              MO Center=  4.4D-16, -1.9D-15,  5.7D-20, r^2= 3.2D+00
   Bfn.  Coefficient  Atom+Function         Bfn.  Coefficient  Atom+Function  
  ----- ------------  ---------------      ----- ------------  ---------------
     2      0.300716   1 C  s                17      0.300716   2 C  s         
    32      0.300716   3 C  s                47      0.300716   4 C  s         
    62      0.300716   5 C  s                77      0.300716   6 C  s         
    19     -0.228249   2 C  py               33      0.228249   3 C  px        
    64      0.228249   5 C  py               78     -0.228249   6 C  px        
 
 Vector   39  Occ=0.000000D+00  E= 5.608217D-01  Symmetry=a2g
              MO Center=  2.1D-15,  2.2D-15,  2.6D-30, r^2= 5.1D+00
   Bfn.  Coefficient  Atom+Function         Bfn.  Coefficient  Atom+Function  
  ----- ------------  ---------------      ----- ------------  ---------------
    22      3.143511   2 C  px               38      3.143511   3 C  py        
    67     -3.143511   5 C  px               83     -3.143511   6 C  py        
     7      2.301210   1 C  px                8     -2.301210   1 C  py        
    52     -2.301210   4 C  px               53      2.301210   4 C  py        
    23      0.842301   2 C  py               37      0.842301   3 C  px        
 
 Vector   40  Occ=0.000000D+00  E= 5.922348D-01  Symmetry=a1g
              MO Center= -8.8D-16,  6.9D-16, -2.6D-19, r^2= 4.8D+00
   Bfn.  Coefficient  Atom+Function         Bfn.  Coefficient  Atom+Function  
  ----- ------------  ---------------      ----- ------------  ---------------
     6      0.553557   1 C  s                21      0.553557   2 C  s         
    36      0.553557   3 C  s                51      0.553557   4 C  s         
    66      0.553557   5 C  s                81      0.553557   6 C  s         
     2     -0.445679   1 C  s                17     -0.445679   2 C  s         
    32     -0.445679   3 C  s                47     -0.445679   4 C  s         
 
 Vector   41  Occ=0.000000D+00  E= 6.009437D-01  Symmetry=e2g
              MO Center=  5.2D-15,  4.8D-15, -2.5D-16, r^2= 4.2D+00
   Bfn.  Coefficient  Atom+Function         Bfn.  Coefficient  Atom+Function  
  ----- ------------  ---------------      ----- ------------  ---------------
    22      0.529865   2 C  px               67     -0.529865   5 C  px        
    38     -0.521447   3 C  py               83      0.521447   6 C  py        
    18     -0.470862   2 C  px               63      0.470862   5 C  px        
    34      0.464593   3 C  py               79     -0.464593   6 C  py        
    91     -0.240790   7 H  s                97     -0.240790  10 H  s         
 
 Vector   42  Occ=0.000000D+00  E= 6.009437D-01  Symmetry=e2g
              MO Center= -3.1D-14,  4.2D-14, -5.4D-15, r^2= 4.2D+00
   Bfn.  Coefficient  Atom+Function         Bfn.  Coefficient  Atom+Function  
  ----- ------------  ---------------      ----- ------------  ---------------
     7      0.435242   1 C  px                8     -0.433252   1 C  py        
    52     -0.435242   4 C  px               53      0.433252   4 C  py        
     3     -0.374076   1 C  px               48      0.374076   4 C  px        
     4      0.369417   1 C  py               49     -0.369417   4 C  py        
    38     -0.283941   3 C  py               83      0.283941   6 C  py        
 
 Vector   43  Occ=0.000000D+00  E= 6.026896D-01  Symmetry=e1g
              MO Center=  1.1D-14,  1.4D-15, -1.1D-14, r^2= 4.1D+00
   Bfn.  Coefficient  Atom+Function         Bfn.  Coefficient  Atom+Function  
  ----- ------------  ---------------      ----- ------------  ---------------
     5      0.550509   1 C  pz                9     -0.548326   1 C  pz        
    50     -0.550509   4 C  pz               54      0.548326   4 C  pz        
    35     -0.495746   3 C  pz               39      0.493780   3 C  pz        
    80      0.495746   6 C  pz               84     -0.493780   6 C  pz        
    14     -0.069261   1 C  dyz              59     -0.069261   4 C  dyz       
 
 Vector   44  Occ=0.000000D+00  E= 6.026896D-01  Symmetry=e1g
              MO Center=  3.1D-17, -2.0D-17, -5.2D-17, r^2= 4.1D+00
   Bfn.  Coefficient  Atom+Function         Bfn.  Coefficient  Atom+Function  
  ----- ------------  ---------------      ----- ------------  ---------------
    20      0.604056   2 C  pz               24     -0.601660   2 C  pz        
    65     -0.604056   5 C  pz               69      0.601660   5 C  pz        
    35      0.349454   3 C  pz               39     -0.348068   3 C  pz        
    80     -0.349454   6 C  pz               84      0.348068   6 C  pz        
     5      0.254601   1 C  pz                9     -0.253592   1 C  pz        
 
 Vector   45  Occ=0.000000D+00  E= 6.269499D-01  Symmetry=e1u
              MO Center= -6.5D-15,  5.3D-15,  1.1D-14, r^2= 4.2D+00
   Bfn.  Coefficient  Atom+Function         Bfn.  Coefficient  Atom+Function  
  ----- ------------  ---------------      ----- ------------  ---------------
    22      0.542559   2 C  px               67      0.542559   5 C  px        
    38      0.480392   3 C  py               83      0.480392   6 C  py        
     2     -0.417400   1 C  s                47      0.417400   4 C  s         
    18     -0.415116   2 C  px               63     -0.415116   5 C  px        
    34     -0.369938   3 C  py               79     -0.369938   6 C  py        
 
 Vector   46  Occ=0.000000D+00  E= 6.269499D-01  Symmetry=e1u
              MO Center= -3.7D-15, -3.9D-15,  1.6D-16, r^2= 4.2D+00
   Bfn.  Coefficient  Atom+Function         Bfn.  Coefficient  Atom+Function  
  ----- ------------  ---------------      ----- ------------  ---------------
     8     -0.436050   1 C  py               53     -0.436050   4 C  py        
     7      0.433090   1 C  px               52      0.433090   4 C  px        
    17      0.383005   2 C  s                62     -0.383005   5 C  s         
    38     -0.354120   3 C  py               83     -0.354120   6 C  py        
    32      0.339954   3 C  s                77     -0.339954   6 C  s         
 
 Vector   47  Occ=0.000000D+00  E= 6.675655D-01  Symmetry=e2u
              MO Center= -1.9D-14,  1.3D-14,  4.9D-15, r^2= 4.6D+00
   Bfn.  Coefficient  Atom+Function         Bfn.  Coefficient  Atom+Function  
  ----- ------------  ---------------      ----- ------------  ---------------
    39      0.958849   3 C  pz               84      0.958849   6 C  pz        
    24     -0.818405   2 C  pz               69     -0.818405   5 C  pz        
    35     -0.583305   3 C  pz               80     -0.583305   6 C  pz        
    20      0.497867   2 C  pz               65      0.497867   5 C  pz        
     9     -0.140444   1 C  pz               54     -0.140444   4 C  pz        
 
 Vector   48  Occ=0.000000D+00  E= 6.675655D-01  Symmetry=e2u
              MO Center= -2.6D-15, -5.5D-15,  4.5D-16, r^2= 4.6D+00
   Bfn.  Coefficient  Atom+Function         Bfn.  Coefficient  Atom+Function  
  ----- ------------  ---------------      ----- ------------  ---------------
     9      1.026098   1 C  pz               54      1.026098   4 C  pz        
    24     -0.634677   2 C  pz               69     -0.634677   5 C  pz        
     5     -0.624215   1 C  pz               50     -0.624215   4 C  pz        
    39     -0.391421   3 C  pz               84     -0.391421   6 C  pz        
    20      0.386098   2 C  pz               65      0.386098   5 C  pz        
 
 Vector   49  Occ=0.000000D+00  E= 7.446264D-01  Symmetry=b2g
              MO Center=  1.1D-14, -8.4D-15, -7.9D-16, r^2= 5.1D+00
   Bfn.  Coefficient  Atom+Function         Bfn.  Coefficient  Atom+Function  
  ----- ------------  ---------------      ----- ------------  ---------------
     9      1.169671   1 C  pz               24     -1.169671   2 C  pz        
    39      1.169671   3 C  pz               54     -1.169671   4 C  pz        
    69      1.169671   5 C  pz               84     -1.169671   6 C  pz        
     5     -0.446981   1 C  pz               20      0.446981   2 C  pz        
    35     -0.446981   3 C  pz               50      0.446981   4 C  pz        
 
 Vector   50  Occ=0.000000D+00  E= 8.427409D-01  Symmetry=b1u
              MO Center=  4.7D-12,  7.0D-12,  3.5D-17, r^2= 6.0D+00
   Bfn.  Coefficient  Atom+Function         Bfn.  Coefficient  Atom+Function  
  ----- ------------  ---------------      ----- ------------  ---------------
    23      3.199320   2 C  py               37      3.199320   3 C  px        
    68      3.199320   5 C  py               82      3.199320   6 C  px        
     6      2.677114   1 C  s                21     -2.677114   2 C  s         
    36      2.677114   3 C  s                51     -2.677114   4 C  s         
    66      2.677114   5 C  s                81     -2.677114   6 C  s         
 
 Vector   51  Occ=0.000000D+00  E= 8.451927D-01  Symmetry=e2g
              MO Center=  1.4D-12, -1.6D-12,  5.5D-18, r^2= 6.7D+00
   Bfn.  Coefficient  Atom+Function         Bfn.  Coefficient  Atom+Function  
  ----- ------------  ---------------      ----- ------------  ---------------
    23      2.229058   2 C  py               68     -2.229058   5 C  py        
    37      2.072500   3 C  px               82     -2.072500   6 C  px        
    94     -1.567954   8 H  s               100     -1.567954  11 H  s         
    96      1.453044   9 H  s               102      1.453044  12 H  s         
    21     -0.723812   2 C  s                66     -0.723812   5 C  s         
 
 Vector   52  Occ=0.000000D+00  E= 8.451927D-01  Symmetry=e2g
              MO Center= -6.1D-12, -5.4D-12, -1.1D-18, r^2= 6.7D+00
   Bfn.  Coefficient  Atom+Function         Bfn.  Coefficient  Atom+Function  
  ----- ------------  ---------------      ----- ------------  ---------------
     8      1.806792   1 C  py               53     -1.806792   4 C  py        
     7      1.790087   1 C  px               52     -1.790087   4 C  px        
    92     -1.744174   7 H  s                98     -1.744174  10 H  s         
    37      1.329868   3 C  px               82     -1.329868   6 C  px        
    23     -1.046473   2 C  py               68      1.046473   5 C  py        
 
 Vector   53  Occ=0.000000D+00  E= 8.705902D-01  Symmetry=e1u
              MO Center= -3.5D-14, -2.4D-14,  3.8D-16, r^2= 6.9D+00
   Bfn.  Coefficient  Atom+Function         Bfn.  Coefficient  Atom+Function  
  ----- ------------  ---------------      ----- ------------  ---------------
    96      1.321196   9 H  s               102     -1.321196  12 H  s         
    37      1.136386   3 C  px               82      1.136386   6 C  px        
     7      0.987649   1 C  px               52      0.987649   4 C  px        
    92     -0.879538   7 H  s                98      0.879538  10 H  s         
    22      0.872248   2 C  px               67      0.872248   5 C  px        
 
 Vector   54  Occ=0.000000D+00  E= 8.705902D-01  Symmetry=e1u
              MO Center= -2.4D-15,  2.8D-15,  4.9D-18, r^2= 6.9D+00
   Bfn.  Coefficient  Atom+Function         Bfn.  Coefficient  Atom+Function  
  ----- ------------  ---------------      ----- ------------  ---------------
    94      1.270594   8 H  s               100     -1.270594  11 H  s         
    23     -1.125274   2 C  py               68     -1.125274   5 C  py        
    92      1.017784   7 H  s                98     -1.017784  10 H  s         
     8     -1.009873   1 C  py               53     -1.009873   4 C  py        
    38     -0.861136   3 C  py               83     -0.861136   6 C  py        
 
 Vector   55  Occ=0.000000D+00  E= 9.376023D-01  Symmetry=e1u
              MO Center=  5.8D-13, -8.5D-13, -3.1D-16, r^2= 4.9D+00
   Bfn.  Coefficient  Atom+Function         Bfn.  Coefficient  Atom+Function  
  ----- ------------  ---------------      ----- ------------  ---------------
     6      3.596433   1 C  s                51     -3.596433   4 C  s         
    22     -2.436083   2 C  px               67     -2.436083   5 C  px        
    38     -2.332655   3 C  py               83     -2.332655   6 C  py        
    36     -1.918703   3 C  s                81      1.918703   6 C  s         
    21      1.677731   2 C  s                66     -1.677731   5 C  s         
 
 Vector   56  Occ=0.000000D+00  E= 9.376023D-01  Symmetry=e1u
              MO Center=  3.2D-13,  8.6D-13,  1.9D-16, r^2= 4.9D+00
   Bfn.  Coefficient  Atom+Function         Bfn.  Coefficient  Atom+Function  
  ----- ------------  ---------------      ----- ------------  ---------------
    21      3.184165   2 C  s                66     -3.184165   5 C  s         
    36      3.045040   3 C  s                81     -3.045040   6 C  s         
     7      2.004584   1 C  px                8     -1.997301   1 C  py        
    52      2.004584   4 C  px               53     -1.997301   4 C  py        
    38     -1.429065   3 C  py               83     -1.429065   6 C  py        
 
 Vector   57  Occ=0.000000D+00  E= 9.456494D-01  Symmetry=a1g
              MO Center=  2.9D-13, -1.5D-13, -4.7D-20, r^2= 6.1D+00
   Bfn.  Coefficient  Atom+Function         Bfn.  Coefficient  Atom+Function  
  ----- ------------  ---------------      ----- ------------  ---------------
     6      0.889542   1 C  s                21      0.889542   2 C  s         
    36      0.889542   3 C  s                51      0.889542   4 C  s         
    66      0.889542   5 C  s                81      0.889542   6 C  s         
    92     -0.855953   7 H  s                94     -0.855953   8 H  s         
    96     -0.855953   9 H  s                98     -0.855953  10 H  s         
 
 Vector   58  Occ=0.000000D+00  E= 9.560308D-01  Symmetry=a2g
              MO Center= -1.1D-12,  2.6D-13, -4.9D-29, r^2= 5.4D+00
   Bfn.  Coefficient  Atom+Function         Bfn.  Coefficient  Atom+Function  
  ----- ------------  ---------------      ----- ------------  ---------------
    22      4.153048   2 C  px               38      4.153048   3 C  py        
    67     -4.153048   5 C  px               83     -4.153048   6 C  py        
     7      3.040243   1 C  px                8     -3.040243   1 C  py        
    52     -3.040243   4 C  px               53      3.040243   4 C  py        
    23      1.112806   2 C  py               37      1.112806   3 C  px        
 
 Vector   59  Occ=0.000000D+00  E= 1.080508D+00  Symmetry=e2g
              MO Center= -1.0D-13,  8.0D-14, -1.2D-16, r^2= 5.0D+00
   Bfn.  Coefficient  Atom+Function         Bfn.  Coefficient  Atom+Function  
  ----- ------------  ---------------      ----- ------------  ---------------
    36      4.256517   3 C  s                81      4.256517   6 C  s         
     6     -2.167046   1 C  s                51     -2.167046   4 C  s         
    21     -2.089470   2 C  s                66     -2.089470   5 C  s         
    32     -1.133612   3 C  s                77     -1.133612   6 C  s         
    22      0.935872   2 C  px               67     -0.935872   5 C  px        
 
 Vector   60  Occ=0.000000D+00  E= 1.080508D+00  Symmetry=e2g
              MO Center=  2.4D-14, -2.1D-13,  3.2D-16, r^2= 5.0D+00
   Bfn.  Coefficient  Atom+Function         Bfn.  Coefficient  Atom+Function  
  ----- ------------  ---------------      ----- ------------  ---------------
    21     -3.708646   2 C  s                66     -3.708646   5 C  s         
     6      3.663857   1 C  s                51      3.663857   4 C  s         
    38      1.060975   3 C  py               83     -1.060975   6 C  py        
    17      0.987701   2 C  s                62      0.987701   5 C  s         
     2     -0.975773   1 C  s                47     -0.975773   4 C  s         
 
 Vector   61  Occ=0.000000D+00  E= 1.140263D+00  Symmetry=e1u
              MO Center=  6.3D-15, -1.5D-14, -9.8D-18, r^2= 4.1D+00
   Bfn.  Coefficient  Atom+Function         Bfn.  Coefficient  Atom+Function  
  ----- ------------  ---------------      ----- ------------  ---------------
    37      1.525801   3 C  px               82      1.525801   6 C  px        
    23     -1.482167   2 C  py               68     -1.482167   5 C  py        
    36     -1.473913   3 C  s                81      1.473913   6 C  s         
    21     -1.378793   2 C  s                66      1.378793   5 C  s         
     8      1.223731   1 C  py               53      1.223731   4 C  py        
 
 Vector   62  Occ=0.000000D+00  E= 1.140263D+00  Symmetry=e1u
              MO Center=  3.2D-14,  9.5D-15,  7.1D-18, r^2= 4.1D+00
   Bfn.  Coefficient  Atom+Function         Bfn.  Coefficient  Atom+Function  
  ----- ------------  ---------------      ----- ------------  ---------------
     6      1.647011   1 C  s                51     -1.647011   4 C  s         
    38     -1.598701   3 C  py               83     -1.598701   6 C  py        
    22     -1.547106   2 C  px               67     -1.547106   5 C  px        
     7      1.158792   1 C  px               52      1.158792   4 C  px        
     8      1.024726   1 C  py               53      1.024726   4 C  py        
 
 Vector   63  Occ=0.000000D+00  E= 1.199517D+00  Symmetry=b1u
              MO Center=  2.5D-15,  1.9D-14,  3.8D-16, r^2= 5.4D+00
   Bfn.  Coefficient  Atom+Function         Bfn.  Coefficient  Atom+Function  
  ----- ------------  ---------------      ----- ------------  ---------------
    23      1.187270   2 C  py               37      1.187270   3 C  px        
    68      1.187270   5 C  py               82      1.187270   6 C  px        
     7     -0.869142   1 C  px                8     -0.869142   1 C  py        
    52     -0.869142   4 C  px               53     -0.869142   4 C  py        
     6     -0.857645   1 C  s                21      0.857645   2 C  s         
 
 Vector   64  Occ=0.000000D+00  E= 1.262248D+00  Symmetry=b1g
              MO Center= -4.1D-18,  8.7D-17,  2.7D-19, r^2= 2.5D+00
   Bfn.  Coefficient  Atom+Function         Bfn.  Coefficient  Atom+Function  
  ----- ------------  ---------------      ----- ------------  ---------------
    27      0.567609   2 C  dxz              44     -0.567609   3 C  dyz       
    72      0.567609   5 C  dxz              89     -0.567609   6 C  dyz       
    12     -0.415519   1 C  dxz              14      0.415519   1 C  dyz       
    57     -0.415519   4 C  dxz              59      0.415519   4 C  dyz       
    29      0.152090   2 C  dyz              42     -0.152090   3 C  dxz       
 
 Vector   65  Occ=0.000000D+00  E= 1.397281D+00  Symmetry=a2u
              MO Center= -1.1D-17,  2.0D-17, -8.5D-20, r^2= 2.6D+00
   Bfn.  Coefficient  Atom+Function         Bfn.  Coefficient  Atom+Function  
  ----- ------------  ---------------      ----- ------------  ---------------
    29      0.620299   2 C  dyz              42     -0.620299   3 C  dxz       
    74     -0.620299   5 C  dyz              87      0.620299   6 C  dxz       
    12      0.454091   1 C  dxz              14      0.454091   1 C  dyz       
    57     -0.454091   4 C  dxz              59     -0.454091   4 C  dyz       
    27     -0.166209   2 C  dxz              44      0.166209   3 C  dyz       
 
 Vector   66  Occ=0.000000D+00  E= 1.438349D+00  Symmetry=e2g
              MO Center=  4.1D-16,  3.1D-15, -1.3D-18, r^2= 4.9D+00
   Bfn.  Coefficient  Atom+Function         Bfn.  Coefficient  Atom+Function  
  ----- ------------  ---------------      ----- ------------  ---------------
    23      3.266174   2 C  py               68     -3.266174   5 C  py        
    37      3.241339   3 C  px               82     -3.241339   6 C  px        
    21     -2.623169   2 C  s                66     -2.623169   5 C  s         
    36      2.603322   3 C  s                81      2.603322   6 C  s         
    94     -1.033840   8 H  s               100     -1.033840  11 H  s         
 
 Vector   67  Occ=0.000000D+00  E= 1.438349D+00  Symmetry=e2g
              MO Center= -9.2D-15, -1.1D-14,  5.1D-17, r^2= 4.9D+00
   Bfn.  Coefficient  Atom+Function         Bfn.  Coefficient  Atom+Function  
  ----- ------------  ---------------      ----- ------------  ---------------
     6      3.017516   1 C  s                51      3.017516   4 C  s         
     7     -2.754006   1 C  px                8     -2.753712   1 C  py        
    52      2.754006   4 C  px               53      2.753712   4 C  py        
    37     -1.909411   3 C  px               82      1.909411   6 C  px        
    23      1.866610   2 C  py               68     -1.866610   5 C  py        
 
 Vector   68  Occ=0.000000D+00  E= 1.485928D+00  Symmetry=e2u
              MO Center=  1.1D-17, -2.4D-17, -4.8D-18, r^2= 2.6D+00
   Bfn.  Coefficient  Atom+Function         Bfn.  Coefficient  Atom+Function  
  ----- ------------  ---------------      ----- ------------  ---------------
    14     -0.570800   1 C  dyz              59      0.570800   4 C  dyz       
    12      0.540254   1 C  dxz              57     -0.540254   4 C  dxz       
    44     -0.506618   3 C  dyz              89      0.506618   6 C  dyz       
    27     -0.446789   2 C  dxz              72      0.446789   5 C  dxz       
    29      0.280551   2 C  dyz              74     -0.280551   5 C  dyz       
 
 Vector   69  Occ=0.000000D+00  E= 1.485928D+00  Symmetry=e2u
              MO Center= -8.3D-17, -9.8D-17, -4.4D-16, r^2= 2.6D+00
   Bfn.  Coefficient  Atom+Function         Bfn.  Coefficient  Atom+Function  
  ----- ------------  ---------------      ----- ------------  ---------------
    27      0.624762   2 C  dxz              72     -0.624762   5 C  dxz       
    44     -0.577309   3 C  dyz              89      0.577309   6 C  dyz       
    42     -0.398695   3 C  dxz              87      0.398695   6 C  dxz       
    29      0.372679   2 C  dyz              74     -0.372679   5 C  dyz       
    12     -0.334513   1 C  dxz              57      0.334513   4 C  dxz       
 
 Vector   70  Occ=0.000000D+00  E= 1.514670D+00  Symmetry=e1g
              MO Center=  2.0D-16, -2.0D-17,  9.9D-18, r^2= 2.6D+00
   Bfn.  Coefficient  Atom+Function         Bfn.  Coefficient  Atom+Function  
  ----- ------------  ---------------      ----- ------------  ---------------
    29      0.871870   2 C  dyz              74      0.871870   5 C  dyz       
    42     -0.581921   3 C  dxz              87     -0.581921   6 C  dxz       
    12      0.369232   1 C  dxz              57      0.369232   4 C  dxz       
    27     -0.203598   2 C  dxz              72     -0.203598   5 C  dxz       
    20      0.129461   2 C  pz               65     -0.129461   5 C  pz        
 
 Vector   71  Occ=0.000000D+00  E= 1.514670D+00  Symmetry=e1g
              MO Center=  9.8D-17,  1.8D-17,  1.4D-17, r^2= 2.6D+00
   Bfn.  Coefficient  Atom+Function         Bfn.  Coefficient  Atom+Function  
  ----- ------------  ---------------      ----- ------------  ---------------
    42      0.653445   3 C  dxz              87      0.653445   6 C  dxz       
    14      0.646757   1 C  dyz              59      0.646757   4 C  dyz       
    12      0.541146   1 C  dxz              57      0.541146   4 C  dxz       
    44     -0.304397   3 C  dyz              89     -0.304397   6 C  dyz       
    27     -0.226427   2 C  dxz              72     -0.226427   5 C  dxz       
 
 Vector   72  Occ=0.000000D+00  E= 1.758259D+00  Symmetry=a1g
              MO Center= -2.5D-15,  2.3D-15,  4.0D-20, r^2= 2.8D+00
   Bfn.  Coefficient  Atom+Function         Bfn.  Coefficient  Atom+Function  
  ----- ------------  ---------------      ----- ------------  ---------------
    15      0.426607   1 C  dzz              30      0.426607   2 C  dzz       
    45      0.426607   3 C  dzz              60      0.426607   4 C  dzz       
    75      0.426607   5 C  dzz              90      0.426607   6 C  dzz       
     6     -0.318628   1 C  s                21     -0.318628   2 C  s         
    36     -0.318628   3 C  s                51     -0.318628   4 C  s         
 
 Vector   73  Occ=0.000000D+00  E= 1.786759D+00  Symmetry=b2u
              MO Center= -8.5D-16, -2.8D-15, -3.6D-30, r^2= 2.9D+00
   Bfn.  Coefficient  Atom+Function         Bfn.  Coefficient  Atom+Function  
  ----- ------------  ---------------      ----- ------------  ---------------
    26      0.551295   2 C  dxy              41      0.551295   3 C  dxy       
    71     -0.551295   5 C  dxy              86     -0.551295   6 C  dxy       
    10     -0.318290   1 C  dxx              13      0.318290   1 C  dyy       
    55      0.318290   4 C  dxx              58     -0.318290   4 C  dyy       
    22     -0.256528   2 C  px               38      0.256528   3 C  py        
 
 Vector   74  Occ=0.000000D+00  E= 1.863956D+00  Symmetry=a1g
              MO Center= -2.5D-16,  1.3D-16, -7.6D-21, r^2= 3.4D+00
   Bfn.  Coefficient  Atom+Function         Bfn.  Coefficient  Atom+Function  
  ----- ------------  ---------------      ----- ------------  ---------------
    11      0.654698   1 C  dxy              56      0.654698   4 C  dxy       
    91     -0.355435   7 H  s                93     -0.355435   8 H  s         
    95     -0.355435   9 H  s                97     -0.355435  10 H  s         
    99     -0.355435  11 H  s               101     -0.355435  12 H  s         
    26     -0.327349   2 C  dxy              41     -0.327349   3 C  dxy       
 
 Vector   75  Occ=0.000000D+00  E= 1.896471D+00  Symmetry=b1u
              MO Center=  4.3D-14,  1.9D-14,  2.4D-18, r^2= 5.2D+00
[...]
           3     0.00000    -0.00000     0.00000    -0.00000     0.00000     0.00000
           4    -0.02908     0.01066     0.06530    -0.03086    -0.02845    -0.04906
           5     0.10854     0.08426    -0.02967    -0.00827    -0.01000    -0.01172
           6     0.00000     0.00000    -0.00000     0.00000    -0.00000     0.00000
           7    -0.10856    -0.08435    -0.02940     0.00827    -0.00967     0.01200
           8     0.02909    -0.01045     0.06534     0.03086    -0.02705     0.04985
           9    -0.00000    -0.00000    -0.00000    -0.00000    -0.00000     0.00000
          10    -0.07946     0.04517    -0.06433     0.02259    -0.04148     0.00248
          11    -0.07946    -0.04538    -0.06419    -0.02259     0.04154     0.00130
          12     0.00000     0.00000     0.00000     0.00000     0.00000    -0.00000
          13     0.02909     0.01066     0.06530    -0.03086     0.02845     0.04906
          14    -0.10856     0.08426    -0.02967    -0.00827     0.01000     0.01172
          15    -0.00000    -0.00000    -0.00000     0.00000    -0.00000     0.00000
          16     0.10854    -0.08435    -0.02940     0.00827     0.00967    -0.01200
          17    -0.02908    -0.01045     0.06534     0.03086     0.02705    -0.04985
          18     0.00000    -0.00000    -0.00000     0.00000     0.00000    -0.00000
          19     0.08660     0.29492    -0.06945     0.27678     0.38047    -0.00720
          20     0.08660    -0.29514    -0.06850    -0.27678    -0.38052     0.00363
          21    -0.00000     0.00000     0.00000     0.00000    -0.00000    -0.00000
          22    -0.03170     0.18023     0.36136    -0.37809    -0.26573    -0.44677
          23     0.11829     0.13567     0.04619    -0.10131    -0.07345    -0.11837
          24    -0.00000    -0.00000     0.00000    -0.00000     0.00000    -0.00000
          25    -0.11830    -0.13552     0.04663     0.10131    -0.07005     0.12041
          26     0.03170    -0.17906     0.36194     0.37809    -0.25291     0.45415
          27     0.00000     0.00000    -0.00000     0.00000    -0.00000     0.00000
          28    -0.08659     0.29492    -0.06945     0.27678    -0.38047     0.00720
          29    -0.08659    -0.29514    -0.06850    -0.27678     0.38052    -0.00363
          30    -0.00000    -0.00000    -0.00000    -0.00000    -0.00000    -0.00000
          31     0.03170     0.18023     0.36136    -0.37809     0.26573     0.44677
          32    -0.11830     0.13567     0.04619    -0.10131     0.07345     0.11837
          33     0.00000     0.00000    -0.00000    -0.00000     0.00000    -0.00000
          34     0.11829    -0.13552     0.04663     0.10131     0.07005    -0.12041
          35    -0.03170    -0.17906     0.36194     0.37809     0.25291    -0.45415
          36    -0.00000    -0.00000     0.00000    -0.00000    -0.00000     0.00000

                   25          26          27          28          29          30
 
 P.Frequency     1356.65     1387.18     1531.44     1531.44     1656.05     1656.06
 
           1     0.08021    -0.03818     0.07471     0.04471    -0.01141    -0.11027
           2    -0.08021     0.03818    -0.07260     0.04805    -0.07532     0.08134
           3     0.00000    -0.00000     0.00000    -0.00000     0.00000    -0.00000
           4    -0.10957    -0.05215     0.03343    -0.09643     0.07899     0.11434
           5    -0.02936    -0.01397     0.06854     0.00678     0.07125    -0.01376
           6     0.00000     0.00000     0.00000     0.00000     0.00000    -0.00000
           7     0.02936    -0.01397    -0.06816     0.00988    -0.04872    -0.05378
           8     0.10957    -0.05215    -0.03777    -0.09481    -0.13181     0.04402
           9     0.00000    -0.00000    -0.00000     0.00000     0.00000     0.00000
          10     0.08021     0.03818     0.07471     0.04471     0.01141     0.11027
          11    -0.08021    -0.03818    -0.07260     0.04805     0.07532    -0.08134
          12     0.00000     0.00000     0.00000     0.00000    -0.00000    -0.00000
          13    -0.10957     0.05215     0.03343    -0.09643    -0.07899    -0.11434
          14    -0.02936     0.01397     0.06854     0.00678    -0.07125     0.01376
          15    -0.00000    -0.00000     0.00000     0.00000    -0.00000     0.00000
          16     0.02936     0.01397    -0.06816     0.00988     0.04872     0.05378
          17     0.10957     0.05215    -0.03777    -0.09481     0.13181    -0.04402
          18    -0.00000    -0.00000     0.00000     0.00000    -0.00000     0.00000
          19    -0.07796     0.25560    -0.26681     0.06270    -0.08893     0.10552
          20     0.07796    -0.25560     0.26938     0.05052    -0.00777    -0.13778
          21    -0.00000     0.00000    -0.00000     0.00000     0.00000     0.00000
          22     0.10649     0.34916    -0.19409     0.31137    -0.13015    -0.11872
          23     0.02854     0.09356     0.02071     0.12324     0.02097    -0.08131
          24    -0.00000     0.00000    -0.00000     0.00000    -0.00000    -0.00000
          25    -0.02853     0.09356    -0.01510     0.12406     0.03204    -0.07762
          26    -0.10649     0.34916     0.20802     0.30224     0.17536    -0.01680
          27    -0.00000     0.00000    -0.00000    -0.00000     0.00000     0.00000
          28    -0.07796    -0.25560    -0.26681     0.06270     0.08893    -0.10552
          29     0.07796     0.25560     0.26938     0.05052     0.00777     0.13777
          30     0.00000     0.00000    -0.00000    -0.00000     0.00000     0.00000
          31     0.10649    -0.34916    -0.19409     0.31137     0.13015     0.11872
          32     0.02854    -0.09356     0.02071     0.12324    -0.02097     0.08131
          33     0.00000    -0.00000    -0.00000    -0.00000     0.00000     0.00000
          34    -0.02853    -0.09356    -0.01510     0.12406    -0.03204     0.07762
          35    -0.10649    -0.34916     0.20802     0.30224    -0.17536     0.01680
          36     0.00000     0.00000    -0.00000     0.00000     0.00000     0.00000

                   31          32          33          34          35          36
 
 P.Frequency     3174.44     3184.10     3184.10     3199.84     3199.84     3210.53
 
           1     0.02300    -0.02241     0.02467    -0.00301    -0.03460    -0.02510
           2     0.02300    -0.02043     0.02633     0.00156    -0.03469    -0.02510
           3    -0.00000    -0.00000     0.00000     0.00000    -0.00000     0.00000
           4     0.00842     0.00583     0.01085     0.00961     0.00885     0.00919
           5    -0.03142    -0.01509    -0.04292    -0.04188    -0.02207    -0.03428
           6     0.00000     0.00000    -0.00000    -0.00000     0.00000    -0.00000
           7    -0.03142    -0.04488    -0.00746     0.04092    -0.02381     0.03428
           8     0.00842     0.01170     0.00386    -0.00923     0.00924    -0.00919
           9     0.00000     0.00000    -0.00000    -0.00000     0.00000     0.00000
          10     0.02300     0.02241    -0.02467    -0.00301    -0.03460     0.02510
          11     0.02300     0.02043    -0.02633     0.00156    -0.03469     0.02510
          12    -0.00000    -0.00000     0.00000     0.00000     0.00000    -0.00000
          13     0.00842    -0.00583    -0.01085     0.00961     0.00885    -0.00919
          14    -0.03142     0.01509     0.04292    -0.04188    -0.02207     0.03428
          15     0.00000     0.00000    -0.00000     0.00000     0.00000     0.00000
          16    -0.03142     0.04488     0.00746     0.04092    -0.02381    -0.03428
          17     0.00842    -0.01170    -0.00386    -0.00923     0.00924     0.00919
          18     0.00000     0.00000    -0.00000     0.00000     0.00000    -0.00000
          19    -0.27637     0.25207    -0.29768     0.01133     0.38844     0.27420
          20    -0.27637     0.24971    -0.29966     0.00494     0.38858     0.27420
          21     0.00000    -0.00000     0.00000    -0.00000     0.00000    -0.00000
          22    -0.10117    -0.05073    -0.13347    -0.12254    -0.07235    -0.10036
          23     0.37755     0.18144     0.50099     0.46572     0.25470     0.37456
          24    -0.00000    -0.00000    -0.00000     0.00000    -0.00000     0.00000
          25     0.37756     0.52477     0.09225    -0.45466     0.27397    -0.37457
          26    -0.10117    -0.14022    -0.02694     0.11940    -0.07741     0.10037
          27    -0.00000     0.00000     0.00000     0.00000    -0.00000     0.00000
          28    -0.27638    -0.25206     0.29767     0.01133     0.38844    -0.27420
          29    -0.27638    -0.24970     0.29965     0.00494     0.38858    -0.27420
          30     0.00000    -0.00000    -0.00000    -0.00000    -0.00000     0.00000
          31    -0.10116     0.05074     0.13347    -0.12254    -0.07234     0.10037
          32     0.37755    -0.18145    -0.50098     0.46573     0.25469    -0.37457
          33    -0.00000     0.00000     0.00000    -0.00000    -0.00000     0.00000
          34     0.37754    -0.52479    -0.09225    -0.45465     0.27397     0.37457
          35    -0.10116     0.14022     0.02694     0.11940    -0.07741    -0.10036
          36    -0.00000     0.00000    -0.00000    -0.00000    -0.00000     0.00000



 ----------------------------------------------------------------------------
 Normal Eigenvalue ||    Projected Derivative Dipole Moments (debye/angs)
  Mode   [cm**-1]  ||      [d/dqX]             [d/dqY]           [d/dqZ]
 ------ ---------- || ------------------ ------------------ -----------------
    1       -0.000 ||       0.000              -0.000            -0.000
    2       -0.000 ||      -0.000              -0.000             0.000
    3        0.000 ||       0.000              -0.000             0.000
    4        0.000 ||      -0.000              -0.000            -0.000
    5        0.000 ||      -0.000               0.000            -0.000
    6        0.000 ||       0.000               0.000            -0.000
    7      415.060 ||       0.000               0.000             0.000
    8      415.061 ||       0.000              -0.000            -0.000
    9      621.892 ||      -0.000               0.000            -0.000
   10      621.895 ||      -0.000               0.000             0.000
   11      694.556 ||       0.000               0.000             1.354
   12      717.756 ||      -0.000              -0.000             0.000
   13      864.708 ||      -0.000               0.000             0.000
   14      864.709 ||      -0.000               0.000            -0.000
   15      969.278 ||       0.000              -0.000            -0.000
   16      969.278 ||       0.000               0.000             0.000
   17     1010.958 ||       0.000               0.000            -0.000
   18     1019.880 ||      -0.000              -0.000            -0.000
   19     1020.529 ||      -0.000              -0.000            -0.000
   20     1069.108 ||       0.197              -0.196            -0.000
   21     1069.116 ||       0.196               0.197            -0.000
   22     1185.671 ||      -0.000               0.000            -0.000
   23     1207.858 ||      -0.000               0.000            -0.000
   24     1207.858 ||       0.000               0.000             0.000
   25     1356.650 ||      -0.000               0.000             0.000
   26     1387.184 ||       0.000               0.000             0.000
   27     1531.435 ||      -0.272               0.284            -0.000
   28     1531.436 ||       0.284               0.272            -0.000
   29     1656.055 ||      -0.000               0.000            -0.000
   30     1656.055 ||      -0.000              -0.000            -0.000
   31     3174.442 ||      -0.000              -0.000            -0.000
   32     3184.096 ||      -0.000              -0.000             0.000
   33     3184.097 ||       0.000              -0.000            -0.000
   34     3199.836 ||       0.767              -0.800            -0.000
   35     3199.838 ||      -0.800              -0.767             0.000
   36     3210.528 ||       0.000               0.000            -0.000
 ----------------------------------------------------------------------------



  
  
 ----------------------------------------------------------------------------
 Normal Eigenvalue ||           Projected Infra Red Intensities
  Mode   [cm**-1]  || [atomic units] [(debye/angs)**2] [(KM/mol)] [arbitrary]
 ------ ---------- || -------------- ----------------- ---------- -----------
    1       -0.000 ||    0.000000           0.000         0.000       0.000
    2       -0.000 ||    0.000000           0.000         0.000       0.000
    3        0.000 ||    0.000000           0.000         0.000       0.000
    4        0.000 ||    0.000000           0.000         0.000       0.000
    5        0.000 ||    0.000000           0.000         0.000       0.000
    6        0.000 ||    0.000000           0.000         0.000       0.000
    7      415.060 ||    0.000000           0.000         0.000       0.000
    8      415.061 ||    0.000000           0.000         0.000       0.000
    9      621.892 ||    0.000000           0.000         0.000       0.000
   10      621.895 ||    0.000000           0.000         0.000       0.000
   11      694.556 ||    0.079510           1.834        77.510     138.877
   12      717.756 ||    0.000000           0.000         0.000       0.000
   13      864.708 ||    0.000000           0.000         0.000       0.000
   14      864.709 ||    0.000000           0.000         0.000       0.000
   15      969.278 ||    0.000000           0.000         0.000       0.000
   16      969.278 ||    0.000000           0.000         0.000       0.000
   17     1010.958 ||    0.000000           0.000         0.000       0.000
   18     1019.880 ||    0.000000           0.000         0.000       0.000
   19     1020.529 ||    0.000000           0.000         0.000       0.000
   20     1069.108 ||    0.003347           0.077         3.263       5.846
   21     1069.116 ||    0.003347           0.077         3.262       5.845
   22     1185.671 ||    0.000000           0.000         0.000       0.000
   23     1207.858 ||    0.000000           0.000         0.000       0.000
   24     1207.858 ||    0.000000           0.000         0.000       0.000
   25     1356.650 ||    0.000000           0.000         0.000       0.000
   26     1387.184 ||    0.000000           0.000         0.000       0.000
   27     1531.435 ||    0.006710           0.155         6.542      11.721
   28     1531.436 ||    0.006711           0.155         6.542      11.722
   29     1656.055 ||    0.000000           0.000         0.000       0.000
   30     1656.055 ||    0.000000           0.000         0.000       0.000
   31     3174.442 ||    0.000000           0.000         0.000       0.000
   32     3184.096 ||    0.000000           0.000         0.000       0.000
   33     3184.097 ||    0.000000           0.000         0.000       0.000
   34     3199.836 ||    0.053241           1.228        51.902      92.994
   35     3199.838 ||    0.053242           1.228        51.903      92.995
   36     3210.528 ||    0.000000           0.000         0.000       0.000
 ----------------------------------------------------------------------------



 vib:animation  F

 Task  times  cpu:       83.0s     wall:       84.5s
 
 
                                NWChem Input Module
                                -------------------
 
 
 Summary of allocated global arrays
-----------------------------------
  No active global arrays


MA_summarize_allocated_blocks: starting scan ...
MA_summarize_allocated_blocks: scan completed: 0 heap blocks, 0 stack blocks
MA usage statistics:

	allocation statistics:
					      heap	     stack
					      ----	     -----
	current number of blocks	         0	         0
	maximum number of blocks	        26	        57
	current total bytes		         0	         0
	maximum total bytes		  42541760	  89023704
	maximum total K-bytes		     42542	     89024
	maximum total M-bytes		        43	        90
 
 
                                     CITATION
                                     --------
                Please cite the following reference when publishing
                           results obtained with NWChem:
 
          E. Apra, E. J. Bylaska, W. A. de Jong, N. Govind, K. Kowalski,
       T. P. Straatsma, M. Valiev, H. J. J. van Dam, Y. Alexeev, J. Anchell,
       V. Anisimov, F. W. Aquino, R. Atta-Fynn, J. Autschbach, N. P. Bauman,
     J. C. Becca, D. E. Bernholdt, K. Bhaskaran-Nair, S. Bogatko, P. Borowski,
         J. Boschen, J. Brabec, A. Bruner, E. Cauet, Y. Chen, G. N. Chuev,
      C. J. Cramer, J. Daily, M. J. O. Deegan, T. H. Dunning Jr., M. Dupuis,
   K. G. Dyall, G. I. Fann, S. A. Fischer, A. Fonari, H. Fruchtl, L. Gagliardi,
      J. Garza, N. Gawande, S. Ghosh, K. Glaesemann, A. W. Gotz, J. Hammond,
       V. Helms, E. D. Hermes, K. Hirao, S. Hirata, M. Jacquelin, L. Jensen,
   B. G. Johnson, H. Jonsson, R. A. Kendall, M. Klemm, R. Kobayashi, V. Konkov,
      S. Krishnamoorthy, M. Krishnan, Z. Lin, R. D. Lins, R. J. Littlefield,
      A. J. Logsdail, K. Lopata, W. Ma, A. V. Marenich, J. Martin del Campo,
   D. Mejia-Rodriguez, J. E. Moore, J. M. Mullin, T. Nakajima, D. R. Nascimento,
    J. A. Nichols, P. J. Nichols, J. Nieplocha, A. Otero-de-la-Roza, B. Palmer,
    A. Panyala, T. Pirojsirikul, B. Peng, R. Peverati, J. Pittner, L. Pollack,
   R. M. Richard, P. Sadayappan, G. C. Schatz, W. A. Shelton, D. W. Silverstein,
   D. M. A. Smith, T. A. Soares, D. Song, M. Swart, H. L. Taylor, G. S. Thomas,
            V. Tipparaju, D. G. Truhlar, K. Tsemekhman, T. Van Voorhis,
      A. Vazquez-Mayagoitia, P. Verma, O. Villa, A. Vishnu, K. D. Vogiatzis,
        D. Wang, J. H. Weare, M. J. Williamson, T. L. Windus, K. Wolinski,
        A. T. Wong, Q. Wu, C. Yang, Q. Yu, M. Zacharias, Z. Zhang, Y. Zhao,
                                and R. J. Harrison
                        "NWChem: Past, present, and future
                         J. Chem. Phys. 152, 184102 (2020)
                               doi:10.1063/5.0004997
 
                                      AUTHORS
                                      -------
  E. Apra, E. J. Bylaska, N. Govind, K. Kowalski, M. Valiev, D. Mejia-Rodriguez,
       A. Kunitsa, N. P. Bauman, A. Panyala, W. A. de Jong, T. P. Straatsma,
   H. J. J. van Dam, D. Wang, T. L. Windus, J. Hammond, J. Autschbach, A. Woods,
    K. Bhaskaran-Nair, J. Brabec, K. Lopata, S. A. Fischer, S. Krishnamoorthy,
     M. Jacquelin, W. Ma, M. Klemm, O. Villa, Y. Chen, V. Anisimov, F. Aquino,
     S. Hirata, M. T. Hackler, E. Hermes, L. Jensen, J. E. Moore, J. C. Becca,
      V. Konjkov, T. Risthaus, M. Malagoli, A. Marenich, A. Otero-de-la-Roza,
        J. Mullin, P. Nichols, R. Peverati, J. Pittner, Y. Zhao, P.-D. Fan,
        A. Fonari, M. J. Williamson, R. J. Harrison, J. R. Rehr, M. Dupuis,
     D. Silverstein, D. M. A. Smith, J. Nieplocha, V. Tipparaju, M. Krishnan,
     B. E. Van Kuiken, A. Vazquez-Mayagoitia, M. Swart, Q. Wu, T. Van Voorhis,
     A. A. Auer, M. Nooijen, L. D. Crosby, E. Brown, G. Cisneros, G. I. Fann,
   H. Fruchtl, J. Garza, K. Hirao, R. A. Kendall, J. A. Nichols, K. Tsemekhman,
    K. Wolinski, J. Anchell, D. E. Bernholdt, P. Borowski, T. Clark, D. Clerc,
   H. Dachsel, M. J. O. Deegan, K. Dyall, D. Elwood, E. Glendening, M. Gutowski,
   A. C. Hess, J. Jaffe, B. G. Johnson, J. Ju, R. Kobayashi, R. Kutteh, Z. Lin,
   R. Littlefield, X. Long, B. Meng, T. Nakajima, S. Niu, L. Pollack, M. Rosing,
   K. Glaesemann, G. Sandrone, M. Stave, H. Taylor, G. Thomas, J. H. van Lenthe,
                               A. T. Wong, Z. Zhang.

 Total times  cpu:       84.1s     wall:       86.0s
