 argument  1 = carbon_dioxide.nw
 


============================== echo of input deck ==============================
start carbon_dioxide
title "carbon_dioxide opt+freq (B3LYP/6-31g*)"
echo

geometry units angstrom
  O  -1.160000  0.000000  0.000000
  C  0.000000  0.000000  0.000000
  O  1.160000  0.000000  0.000000
end

charge 0

basis
  * library 6-31g*
end

dft
  xc b3lyp
  grid xfine
end

driver
  maxiter 200
end

task dft optimize
task dft freq
================================================================================


                                         
                                         
 
 
             Northwest Computational Chemistry Package (NWChem) 7.2.2
             --------------------------------------------------------
 
 
                    Environmental Molecular Sciences Laboratory
                       Pacific Northwest National Laboratory
                                Richland, WA 99352
 
                              Copyright (c) 1994-2022
                       Pacific Northwest National Laboratory
                            Battelle Memorial Institute
 
             NWChem is an open-source computational chemistry package
                        distributed under the terms of the
                      Educational Community License (ECL) 2.0
             A copy of the license is included with this distribution
                              in the LICENSE.TXT file
 
                                  ACKNOWLEDGMENT
                                  --------------

            This software and its documentation were developed at the
            EMSL at Pacific Northwest National Laboratory, a multiprogram
            national laboratory, operated for the U.S. Department of Energy
            by Battelle under Contract Number DE-AC05-76RL01830. Support
            for this work was provided by the Department of Energy Office
            of Biological and Environmental Research, Office of Basic
            Energy Sciences, and the Office of Advanced Scientific Computing.


           Job information
           ---------------

    hostname        = charliebox
    program         = /apps/nwchem/bin/nwchem
    date            = Sun Oct 19 14:44:24 2025

    compiled        = Tue_Apr_23_01:04:59_2024
    source          = /apps/nwchem-7.2.2-release
    nwchem branch   = 7.2.2
    nwchem revision = N/A
    ga revision     = 5.8.0
    use scalapack   = T
    input           = carbon_dioxide.nw
    prefix          = carbon_dioxide.
    data base       = ./carbon_dioxide.db
    status          = startup
    nproc           =       19
    time left       =     -1s



           Memory information
           ------------------

    heap     =   26214394 doubles =    200.0 Mbytes
    stack    =   26214399 doubles =    200.0 Mbytes
    global   =   52428800 doubles =    400.0 Mbytes (distinct from heap & stack)
    total    =  104857593 doubles =    800.0 Mbytes
    verify   = yes
    hardfail = no 


           Directory information
           ---------------------
 
  0 permanent = .
  0 scratch   = .
 
 
 
 
                                NWChem Input Module
                                -------------------
 
 
                      carbon_dioxide opt+freq (B3LYP/6-31g*)
                      --------------------------------------

 Scaling coordinates for geometry "geometry" by  1.889725989
 (inverse scale =  0.529177249)

 ORDER OF PRIMARY AXIS IS BEING SET TO 4
 D4H symmetry detected

          ------
          auto-z
          ------
  autoz: insufficient variables                      2                     3
     1 autoz failed with cvr_scaling = 1.2 changing to 1.3
  autoz: insufficient variables                      2                     3
     2 autoz failed with cvr_scaling = 1.3 changing to 1.4
  autoz: insufficient variables                      2                     3
     3 autoz failed with cvr_scaling = 1.4 changing to 1.5
  autoz: insufficient variables                      2                     3
     4 autoz failed with cvr_scaling = 1.5 changing to 1.6
  autoz: insufficient variables                      2                     3
     5 autoz failed with cvr_scaling = 1.6 changing to 1.7
  autoz: insufficient variables                      2                     3

 AUTOZ failed to generate good internal coordinates.
 Cartesian coordinates will be used in optimizations.

 
 
                             Geometry "geometry" -> ""
                             -------------------------
 
 Output coordinates in angstroms (scale by  1.889725989 to convert to a.u.)
 
  No.       Tag          Charge          X              Y              Z
 ---- ---------------- ---------- -------------- -------------- --------------
    1 O                    8.0000     0.00000000     0.00000000    -1.16000000
    2 C                    6.0000     0.00000000     0.00000000     0.00000000
    3 O                    8.0000     0.00000000     0.00000000     1.16000000
 
      Atomic Mass 
      ----------- 
 
      O                 15.994910
      C                 12.000000
 

 Effective nuclear repulsion energy (a.u.)      58.3919723034

            Nuclear Dipole moment (a.u.) 
            ----------------------------
        X                 Y               Z
 ---------------- ---------------- ----------------
     0.0000000000     0.0000000000     0.0000000000
 
      Symmetry information
      --------------------
 
 Group name             D4h       
 Group number             28
 Group order              16
 No. of unique centers     2
 
      Symmetry unique atoms
 
     1    2
 
 
            XYZ format geometry
            -------------------
     3
 geometry
 O                     0.00000000     0.00000000    -1.16000000
 C                     0.00000000     0.00000000     0.00000000
 O                     0.00000000     0.00000000     1.16000000
 
 ==============================================================================
                                internuclear distances
 ------------------------------------------------------------------------------
       center one      |      center two      | atomic units |  angstroms
 ------------------------------------------------------------------------------
    2 C                |   1 O                |     2.19208  |     1.16000
    3 O                |   2 C                |     2.19208  |     1.16000
 ------------------------------------------------------------------------------
                         number of included internuclear distances:          2
 ==============================================================================



 ==============================================================================
                                 internuclear angles
 ------------------------------------------------------------------------------
        center 1       |       center 2       |       center 3       |  degrees
 ------------------------------------------------------------------------------
    1 O                |   2 C                |   3 O                |   180.00
 ------------------------------------------------------------------------------
                            number of included internuclear angles:          1
 ==============================================================================



  library name resolved from: environment
  library file name is: </apps/nwchem/data/libraries/>
  


 Summary of "ao basis" -> "" (cartesian)
 ------------------------------------------------------------------------------
       Tag                 Description            Shells   Functions and Types
 ---------------- ------------------------------  ------  ---------------------
 *                           6-31g*                   on all atoms 


 
 
                           NWChem Geometry Optimization
                           ----------------------------
 
 
 
 
                      carbon_dioxide opt+freq (B3LYP/6-31g*)
 
 
 maximum gradient threshold         (gmax) =   0.000450
 rms gradient threshold             (grms) =   0.000300
 maximum cartesian step threshold   (xmax) =   0.001800
 rms cartesian step threshold       (xrms) =   0.001200
 fixed trust radius                (trust) =   0.300000
 maximum step size to saddle      (sadstp) =   0.100000
 energy precision                  (eprec) =   5.0D-06
 maximum number of steps          (nptopt) =  200
 initial hessian option           (inhess) =    0
 line search option               (linopt) =    1
 hessian update option            (modupd) =    1
 saddle point option              (modsad) =    0
 initial eigen-mode to follow     (moddir) =    0
 initial variable to follow       (vardir) =    0
 follow first negative mode     (firstneg) =    T
 apply conjugacy                    (opcg) =    F
 source of zmatrix                         =           


          -------------------
          Energy Minimization
          -------------------

 
 Using old Hessian from previous optimization

          --------
          Step   0
          --------
 
 
                         Geometry "geometry" -> "geometry"
                         ---------------------------------
 
 Output coordinates in angstroms (scale by  1.889725989 to convert to a.u.)
 
  No.       Tag          Charge          X              Y              Z
 ---- ---------------- ---------- -------------- -------------- --------------
    1 O                    8.0000     0.00000000     0.00000000    -1.16000000
    2 C                    6.0000     0.00000000     0.00000000     0.00000000
    3 O                    8.0000     0.00000000     0.00000000     1.16000000
 
      Atomic Mass 
      ----------- 
 
      O                 15.994910
      C                 12.000000
 

 Effective nuclear repulsion energy (a.u.)      58.3919723034

            Nuclear Dipole moment (a.u.) 
            ----------------------------
        X                 Y               Z
 ---------------- ---------------- ----------------
     0.0000000000     0.0000000000     0.0000000000
 
      Symmetry information
      --------------------
 
 Group name             D4h       
 Group number             28
 Group order              16
 No. of unique centers     2
 
      Symmetry unique atoms
 
     1    2
 
 
                                 NWChem DFT Module
                                 -----------------
 
 
                      carbon_dioxide opt+freq (B3LYP/6-31g*)
 
 
                      Basis "ao basis" -> "ao basis" (cartesian)
                      -----
  O (Oxygen)
  ----------
            Exponent  Coefficients 
       -------------- ---------------------------------------------------------
  1 S  5.48467170E+03  0.001831
  1 S  8.25234950E+02  0.013950
  1 S  1.88046960E+02  0.068445
  1 S  5.29645000E+01  0.232714
  1 S  1.68975700E+01  0.470193
  1 S  5.79963530E+00  0.358521
 
  2 S  1.55396160E+01 -0.110778
  2 S  3.59993360E+00 -0.148026
  2 S  1.01376180E+00  1.130767
 
  3 P  1.55396160E+01  0.070874
  3 P  3.59993360E+00  0.339753
  3 P  1.01376180E+00  0.727159
 
  4 S  2.70005800E-01  1.000000
 
  5 P  2.70005800E-01  1.000000
 
  6 D  8.00000000E-01  1.000000
 
  C (Carbon)
  ----------
            Exponent  Coefficients 
       -------------- ---------------------------------------------------------
  1 S  3.04752490E+03  0.001835
  1 S  4.57369510E+02  0.014037
  1 S  1.03948690E+02  0.068843
  1 S  2.92101550E+01  0.232184
  1 S  9.28666300E+00  0.467941
  1 S  3.16392700E+00  0.362312
 
  2 S  7.86827240E+00 -0.119332
  2 S  1.88128850E+00 -0.160854
  2 S  5.44249300E-01  1.143456
 
  3 P  7.86827240E+00  0.068999
  3 P  1.88128850E+00  0.316424
  3 P  5.44249300E-01  0.744308
 
  4 S  1.68714400E-01  1.000000
 
  5 P  1.68714400E-01  1.000000
 
  6 D  8.00000000E-01  1.000000
 


 Summary of "ao basis" -> "ao basis" (cartesian)
 ------------------------------------------------------------------------------
       Tag                 Description            Shells   Functions and Types
 ---------------- ------------------------------  ------  ---------------------
 O                           6-31g*                  6       15   3s2p1d
 C                           6-31g*                  6       15   3s2p1d




 Summary of "ao basis" -> "ao basis" (cartesian)
 ------------------------------------------------------------------------------
       Tag                 Description            Shells   Functions and Types
 ---------------- ------------------------------  ------  ---------------------
 O                           6-31g*                  6       15   3s2p1d
 C                           6-31g*                  6       15   3s2p1d


      Symmetry analysis of basis
      --------------------------
 
        a1g        12
        a1u         0
        a2g         0
        a2u         9
        b1g         2
        b1u         1
        b2g         2
        b2u         1
        eg          8
        eu         10
 
  Caching 1-el integrals 
 
            General Information
            -------------------
          SCF calculation type: DFT
          Wavefunction type:  closed shell.
          No. of atoms     :     3
          No. of electrons :    22
           Alpha electrons :    11
            Beta electrons :    11
          Charge           :     0
          Spin multiplicity:     1
          Use of symmetry is: on ; symmetry adaption is: on 
          Maximum number of iterations:  50
          AO basis - number of functions:    45
                     number of shells:    18
          Convergence on energy requested:  1.00D-06
          Convergence on density requested:  1.00D-05
          Convergence on gradient requested:  5.00D-04
 
              XC Information
              --------------
                         B3LYP Method XC Potential
                     Hartree-Fock (Exact) Exchange  0.200          
                        Slater Exchange Functional  0.800 local    
                    Becke 1988 Exchange Functional  0.720 non-local
              Lee-Yang-Parr Correlation Functional  0.810          
                  VWN I RPA Correlation Functional  0.190 local    
 
             Grid Information
             ----------------
          Grid used for XC integration:  xfine     
          Radial quadrature: Mura-Knowles        
          Angular quadrature: Lebedev. 
          Tag              B.-S. Rad. Rad. Pts. Rad. Cut. Ang. Pts.
          ---              ---------- --------- --------- ---------
          O                   0.60      100           7.0      1454
          C                   0.70      100           6.0      1454
          Grid pruning is: on 
          Number of quadrature shells:   200
          Spatial weights used:  Erf1
 
          Convergence Information
          -----------------------
          Convergence aids based upon iterative change in 
          total energy or number of iterations. 
          Levelshifting, if invoked, occurs when the 
          HOMO/LUMO gap drops below (HL_TOL):  1.00D-02
          DIIS, if invoked, will attempt to extrapolate 
          using up to (NFOCK): 10 stored Fock matrices.

                    Damping( 0%)  Levelshifting(0.5)       DIIS
                  --------------- ------------------- ---------------
          dE  on:    start            ASAP                start   
          dE off:    2 iters         50 iters            50 iters 

 
      Screening Tolerance Information
      -------------------------------
          Density screening/tol_rho:  1.00D-10
          AO Gaussian exp screening on grid/accAOfunc:  14
          CD Gaussian exp screening on grid/accCDfunc:  20
          XC Gaussian exp screening on grid/accXCfunc:  20
          Schwarz screening/accCoul:  1.00D-08

 
      Superposition of Atomic Density Guess
      -------------------------------------
 
 Sum of atomic energies:        -187.16895861
 
      Non-variational initial energy
      ------------------------------

 Total energy =    -188.252515
 1-e energy   =    -372.056535
 2-e energy   =     125.412048
 HOMO         =      -0.469084
 LUMO         =       0.134102
 
 
      Symmetry analysis of molecular orbitals - initial
      -------------------------------------------------
 
  Numbering of irreducible representations: 
 
     1 a1g         2 a1u         3 a2g         4 a2u         5 b1g     
     6 b1u         7 b2g         8 b2u         9 eg         10 eu      
 
  Orbital symmetries:
 
     1 a1g         2 a2u         3 a1g         4 a1g         5 a2u     
     6 a1g         7 a2u         8 eu          9 eu         10 eg      
    11 eg         12 eu         13 eu         14 a1g        15 a2u     
    16 eu         17 eu         18 a1g        19 a2u        20 a1g     
    21 eg      
 
  WARNING: movecs_in_org=atomic not equal to movecs_in=./carbon_dioxide.movecs
   Time after variat. SCF:      3.6
   Time prior to 1st pass:      3.6

 #quartets = 8.853D+03 #integrals = 9.708D+04 #direct =  0.0% #cached =100.0%


 Integral file          = ./carbon_dioxide.aoints.00
 Record size in doubles =  65536        No. of integs per rec  =  43688
 Max. records in memory =      3        Max. records in file   = 224881
 No. of bits per label  =      8        No. of bits per value  =     64


File balance: exchanges=     0  moved=     0  time=   0.0


 Grid_pts file          = ./carbon_dioxide.gridpts.00
 Record size in doubles =  12289        No. of grid_pts per rec  =   3070
 Max. records in memory =      7        Max. recs in file   =   1199263


           Memory utilization after 1st SCF pass: 
           Heap Space remaining (MW):       25.93            25929538
          Stack Space remaining (MW):       26.21            26214020

   convergence    iter        energy       DeltaE   RMS-Dens  Diis-err    time
 ---------------- ----- ----------------- --------- --------- ---------  ------
 d= 0,ls=0.0,diis     1   -188.4594746816 -2.47D+02  2.63D-02  1.13D+00     4.0

 !! scf_movecs_sym_adapt:    2 vectors were symmetry contaminated

  Symmetry fudging
 d= 0,ls=0.0,diis     2   -188.3066551979  1.53D-01  1.61D-02  3.02D+00     4.0
 d= 0,ls=0.0,diis     3   -188.5784005517 -2.72D-01  2.51D-03  2.51D-02     4.1
 d= 0,ls=0.0,diis     4   -188.5803249857 -1.92D-03  6.97D-04  2.89D-03     4.1
 d= 0,ls=0.0,diis     5   -188.5805898689 -2.65D-04  4.08D-05  5.77D-06     4.1
 d= 0,ls=0.0,diis     6   -188.5805904058 -5.37D-07  5.24D-06  1.51D-07     5.5


         Total DFT energy =     -188.580590405782
      One electron energy =     -372.865347948708
           Coulomb energy =      148.443787838030
    Exchange-Corr. energy =      -22.551002598519
 Nuclear repulsion energy =       58.391972303415

 Numeric. integr. density =       21.999999980089

     Total iterative time =      1.9s


 
                  Occupations of the irreducible representations
                  ----------------------------------------------
 
                     irrep           alpha         beta
                     --------     --------     --------
                     a1g               4.0          4.0
                     a1u               0.0          0.0
                     a2g               0.0          0.0
                     a2u               3.0          3.0
                     b1g               0.0          0.0
                     b1u               0.0          0.0
                     b2g               0.0          0.0
                     b2u               0.0          0.0
                     eg                2.0          2.0
                     eu                2.0          2.0
 
 
                       DFT Final Molecular Orbital Analysis
                       ------------------------------------
 
 Vector    1  Occ=2.000000D+00  E=-1.923459D+01  Symmetry=a1g
              MO Center= -2.7D-23,  4.5D-23, -8.2D-10, r^2= 1.4D+00
   Bfn.  Coefficient  Atom+Function         Bfn.  Coefficient  Atom+Function  
  ----- ------------  ---------------      ----- ------------  ---------------
     1      0.702035  1 O  s                 31      0.702035  3 O  s          
 
 Vector    2  Occ=2.000000D+00  E=-1.923458D+01  Symmetry=a2u
              MO Center= -1.9D-18,  2.8D-18,  8.2D-10, r^2= 1.4D+00
   Bfn.  Coefficient  Atom+Function         Bfn.  Coefficient  Atom+Function  
  ----- ------------  ---------------      ----- ------------  ---------------
     1      0.701814  1 O  s                 31     -0.701814  3 O  s          
 
 Vector    3  Occ=2.000000D+00  E=-1.038194D+01  Symmetry=a1g
              MO Center= -1.3D-33, -2.9D-35,  1.2D-19, r^2= 2.8D-02
   Bfn.  Coefficient  Atom+Function         Bfn.  Coefficient  Atom+Function  
  ----- ------------  ---------------      ----- ------------  ---------------
    16      0.992788  2 C  s                 17      0.049864  2 C  s          
 
 Vector    4  Occ=2.000000D+00  E=-1.165242D+00  Symmetry=a1g
              MO Center= -4.6D-33, -3.5D-35, -3.8D-17, r^2= 1.1D+00
   Bfn.  Coefficient  Atom+Function         Bfn.  Coefficient  Atom+Function  
  ----- ------------  ---------------      ----- ------------  ---------------
    17      0.303375  2 C  s                  2      0.290184  1 O  s          
    32      0.290184  3 O  s                  6      0.264641  1 O  s          
    36      0.264641  3 O  s                 16     -0.158659  2 C  s          
     1     -0.134758  1 O  s                 31     -0.134758  3 O  s          
     5      0.127089  1 O  pz                35     -0.127089  3 O  pz         
 
 Vector    5  Occ=2.000000D+00  E=-1.123931D+00  Symmetry=a2u
              MO Center=  2.3D-16, -3.9D-16, -9.2D-16, r^2= 1.1D+00
   Bfn.  Coefficient  Atom+Function         Bfn.  Coefficient  Atom+Function  
  ----- ------------  ---------------      ----- ------------  ---------------
    20     -0.340917  2 C  pz                 2      0.324757  1 O  s          
    32     -0.324757  3 O  s                  6      0.263624  1 O  s          
    36     -0.263624  3 O  s                  1     -0.146755  1 O  s          
    31      0.146755  3 O  s                  5      0.131821  1 O  pz         
    35      0.131821  3 O  pz         
 
 Vector    6  Occ=2.000000D+00  E=-5.606258D-01  Symmetry=a1g
              MO Center=  2.8D-31,  2.6D-31,  2.9D-16, r^2= 2.2D+00
   Bfn.  Coefficient  Atom+Function         Bfn.  Coefficient  Atom+Function  
  ----- ------------  ---------------      ----- ------------  ---------------
     6     -0.341874  1 O  s                 36     -0.341874  3 O  s          
     5      0.332909  1 O  pz                35     -0.332909  3 O  pz         
    17      0.311087  2 C  s                  2     -0.211337  1 O  s          
    32     -0.211337  3 O  s                 21      0.183129  2 C  s          
     9      0.174864  1 O  pz                39     -0.174864  3 O  pz         
 
 Vector    7  Occ=2.000000D+00  E=-5.167862D-01  Symmetry=a2u
              MO Center=  1.4D-15, -9.1D-16,  7.1D-16, r^2= 2.2D+00
   Bfn.  Coefficient  Atom+Function         Bfn.  Coefficient  Atom+Function  
  ----- ------------  ---------------      ----- ------------  ---------------
     5      0.393822  1 O  pz                35      0.393822  3 O  pz         
    20     -0.349429  2 C  pz                 6     -0.294608  1 O  s          
    36      0.294608  3 O  s                  9      0.181171  1 O  pz         
    39      0.181171  3 O  pz                 2     -0.157199  1 O  s          
    32      0.157199  3 O  s                  1      0.071711  1 O  s          
 
 Vector    8  Occ=2.000000D+00  E=-5.159356D-01  Symmetry=eu
              MO Center=  2.4D-16, -3.7D-17, -3.8D-15, r^2= 1.4D+00
   Bfn.  Coefficient  Atom+Function         Bfn.  Coefficient  Atom+Function  
  ----- ------------  ---------------      ----- ------------  ---------------
    18      0.400759  2 C  px                 3      0.349916  1 O  px         
    33      0.349916  3 O  px                 7      0.190571  1 O  px         
    37      0.190571  3 O  px                22      0.155446  2 C  px         
    12      0.050041  1 O  dxz               42     -0.050041  3 O  dxz        
    19      0.039502  2 C  py                 4      0.034490  1 O  py         
 
 Vector    9  Occ=2.000000D+00  E=-5.159356D-01  Symmetry=eu
              MO Center=  3.9D-17, -5.9D-16, -5.0D-15, r^2= 1.4D+00
   Bfn.  Coefficient  Atom+Function         Bfn.  Coefficient  Atom+Function  
  ----- ------------  ---------------      ----- ------------  ---------------
    19      0.400759  2 C  py                 4      0.349916  1 O  py         
    34      0.349916  3 O  py                 8      0.190571  1 O  py         
    38      0.190571  3 O  py                23      0.155446  2 C  py         
    14      0.050041  1 O  dyz               44     -0.050041  3 O  dyz        
    18     -0.039502  2 C  px                 3     -0.034490  1 O  px         
 
 Vector   10  Occ=2.000000D+00  E=-3.702621D-01  Symmetry=eg
              MO Center= -8.9D-17, -9.5D-17, -1.4D-15, r^2= 1.8D+00
   Bfn.  Coefficient  Atom+Function         Bfn.  Coefficient  Atom+Function  
  ----- ------------  ---------------      ----- ------------  ---------------
     4      0.348395  1 O  py                34     -0.348395  3 O  py         
     3      0.319297  1 O  px                33     -0.319297  3 O  px         
     8      0.241563  1 O  py                38     -0.241563  3 O  py         
     7      0.221387  1 O  px                37     -0.221387  3 O  px         
    29     -0.074495  2 C  dyz               27     -0.068273  2 C  dxz        
 
 Vector   11  Occ=2.000000D+00  E=-3.702621D-01  Symmetry=eg
              MO Center= -1.5D-15,  1.4D-15,  8.7D-15, r^2= 1.8D+00
   Bfn.  Coefficient  Atom+Function         Bfn.  Coefficient  Atom+Function  
  ----- ------------  ---------------      ----- ------------  ---------------
     3      0.348395  1 O  px                33     -0.348395  3 O  px         
     4     -0.319297  1 O  py                34      0.319297  3 O  py         
     7      0.241563  1 O  px                37     -0.241563  3 O  px         
     8     -0.221387  1 O  py                38      0.221387  3 O  py         
    27     -0.074495  2 C  dxz               29      0.068273  2 C  dyz        
 
 Vector   12  Occ=0.000000D+00  E= 3.634520D-02  Symmetry=eu
              MO Center= -2.3D-15,  2.2D-15,  5.3D-17, r^2= 1.5D+00
   Bfn.  Coefficient  Atom+Function         Bfn.  Coefficient  Atom+Function  
  ----- ------------  ---------------      ----- ------------  ---------------
    22      0.431868  2 C  px                18      0.427482  2 C  px         
    23     -0.424730  2 C  py                19     -0.420417  2 C  py         
     7     -0.284204  1 O  px                37     -0.284204  3 O  px         
     8      0.279506  1 O  py                38      0.279506  3 O  py         
     3     -0.269143  1 O  px                33     -0.269143  3 O  px         
 
 Vector   13  Occ=0.000000D+00  E= 3.634520D-02  Symmetry=eu
              MO Center= -4.6D-16,  4.6D-16,  9.4D-16, r^2= 1.5D+00
   Bfn.  Coefficient  Atom+Function         Bfn.  Coefficient  Atom+Function  
  ----- ------------  ---------------      ----- ------------  ---------------
    23      0.431868  2 C  py                19      0.427482  2 C  py         
    22      0.424730  2 C  px                18      0.420417  2 C  px         
     8     -0.284204  1 O  py                38     -0.284204  3 O  py         
     7     -0.279506  1 O  px                37     -0.279506  3 O  px         
     4     -0.269143  1 O  py                34     -0.269143  3 O  py         
 
 Vector   14  Occ=0.000000D+00  E= 8.901021D-02  Symmetry=a1g
              MO Center=  2.0D-15, -2.0D-15, -6.8D-16, r^2= 1.8D+00
   Bfn.  Coefficient  Atom+Function         Bfn.  Coefficient  Atom+Function  
  ----- ------------  ---------------      ----- ------------  ---------------
    21      2.288253  2 C  s                  6     -0.900415  1 O  s          
    36     -0.900415  3 O  s                  9     -0.566686  1 O  pz         
    39      0.566686  3 O  pz                 5     -0.291239  1 O  pz         
    35      0.291239  3 O  pz                 2     -0.174134  1 O  s          
    32     -0.174134  3 O  s                 16     -0.095318  2 C  s          
 
 Vector   15  Occ=0.000000D+00  E= 3.652952D-01  Symmetry=a2u
              MO Center=  3.1D-17,  1.2D-17,  8.7D-16, r^2= 3.7D+00
   Bfn.  Coefficient  Atom+Function         Bfn.  Coefficient  Atom+Function  
  ----- ------------  ---------------      ----- ------------  ---------------
    24      4.158846  2 C  pz                 6      3.031083  1 O  s          
    36     -3.031083  3 O  s                  9      0.864150  1 O  pz         
    39      0.864150  3 O  pz                 1     -0.102576  1 O  s          
    31      0.102576  3 O  s                  5     -0.097962  1 O  pz         
    35     -0.097962  3 O  pz                10     -0.082181  1 O  dxx        
 
 Vector   16  Occ=0.000000D+00  E= 4.712955D-01  Symmetry=eu
              MO Center=  1.7D-17, -2.0D-17, -3.0D-16, r^2= 2.1D+00
   Bfn.  Coefficient  Atom+Function         Bfn.  Coefficient  Atom+Function  
  ----- ------------  ---------------      ----- ------------  ---------------
    23      1.167178  2 C  py                19     -0.821364  2 C  py         
    22     -0.598933  2 C  px                18      0.421480  2 C  px         
     8     -0.124402  1 O  py                38     -0.124402  3 O  py         
     4     -0.103885  1 O  py                34     -0.103885  3 O  py         
    14     -0.096279  1 O  dyz               44      0.096279  3 O  dyz        
 
 Vector   17  Occ=0.000000D+00  E= 4.712955D-01  Symmetry=eu
              MO Center=  6.3D-18,  9.4D-18, -2.1D-16, r^2= 2.1D+00
   Bfn.  Coefficient  Atom+Function         Bfn.  Coefficient  Atom+Function  
  ----- ------------  ---------------      ----- ------------  ---------------
    22      1.167178  2 C  px                18     -0.821364  2 C  px         
    23      0.598933  2 C  py                19     -0.421480  2 C  py         
     7     -0.124402  1 O  px                37     -0.124402  3 O  px         
     3     -0.103885  1 O  px                33     -0.103885  3 O  px         
    12     -0.096279  1 O  dxz               42      0.096279  3 O  dxz        
 
 Vector   18  Occ=0.000000D+00  E= 5.909871D-01  Symmetry=a1g
              MO Center= -7.5D-17,  1.1D-16,  6.9D-16, r^2= 1.8D+00
   Bfn.  Coefficient  Atom+Function         Bfn.  Coefficient  Atom+Function  
  ----- ------------  ---------------      ----- ------------  ---------------
    21      2.065063  2 C  s                 17     -1.073446  2 C  s          
     6     -0.555844  1 O  s                 36     -0.555844  3 O  s          
     9     -0.469151  1 O  pz                39      0.469151  3 O  pz         
     5      0.386880  1 O  pz                35     -0.386880  3 O  pz         
    30      0.316528  2 C  dzz               15     -0.230202  1 O  dzz        
 
 Vector   19  Occ=0.000000D+00  E= 7.426450D-01  Symmetry=a2u
              MO Center= -8.8D-18,  1.3D-17, -4.3D-14, r^2= 2.7D+00
   Bfn.  Coefficient  Atom+Function         Bfn.  Coefficient  Atom+Function  
  ----- ------------  ---------------      ----- ------------  ---------------
    20      1.072374  2 C  pz                 9      0.892491  1 O  pz         
    39      0.892491  3 O  pz                 2      0.244737  1 O  s          
    32     -0.244737  3 O  s                 24     -0.205314  2 C  pz         
     6      0.120956  1 O  s                 36     -0.120956  3 O  s          
    10      0.096899  1 O  dxx               13      0.096899  1 O  dyy        
 
 Vector   20  Occ=0.000000D+00  E= 7.819108D-01  Symmetry=a1g
              MO Center=  1.1D-16, -7.8D-17,  4.3D-14, r^2= 4.0D+00
   Bfn.  Coefficient  Atom+Function         Bfn.  Coefficient  Atom+Function  
  ----- ------------  ---------------      ----- ------------  ---------------
    17      1.114810  2 C  s                  9     -1.007840  1 O  pz         
    39      1.007840  3 O  pz                 2     -0.377964  1 O  s          
    32     -0.377964  3 O  s                 30      0.334857  2 C  dzz        
     5      0.317042  1 O  pz                35     -0.317042  3 O  pz         
     6      0.242381  1 O  s                 36      0.242381  3 O  s          
 
 Vector   21  Occ=0.000000D+00  E= 8.745209D-01  Symmetry=eg
              MO Center= -8.5D-17,  7.7D-17, -1.4D-15, r^2= 2.7D+00
   Bfn.  Coefficient  Atom+Function         Bfn.  Coefficient  Atom+Function  
  ----- ------------  ---------------      ----- ------------  ---------------
     7      0.807741  1 O  px                37     -0.807741  3 O  px         
     3     -0.640444  1 O  px                33      0.640444  3 O  px         
    27      0.240484  2 C  dxz                8     -0.104721  1 O  py         
    38      0.104721  3 O  py                 4      0.083032  1 O  py         
    34     -0.083032  3 O  py                29     -0.031178  2 C  dyz        
 
 Vector   22  Occ=0.000000D+00  E= 8.745209D-01  Symmetry=eg
              MO Center= -4.4D-17, -2.6D-17,  3.9D-15, r^2= 2.7D+00
   Bfn.  Coefficient  Atom+Function         Bfn.  Coefficient  Atom+Function  
  ----- ------------  ---------------      ----- ------------  ---------------
     8      0.807741  1 O  py                38     -0.807741  3 O  py         
     4     -0.640444  1 O  py                34      0.640444  3 O  py         
    29      0.240484  2 C  dyz                7      0.104721  1 O  px         
    37     -0.104721  3 O  px                 3     -0.083032  1 O  px         
    33      0.083032  3 O  px                27      0.031178  2 C  dxz        
 
 Vector   23  Occ=0.000000D+00  E= 1.044287D+00  Symmetry=eu
              MO Center= -1.3D-17, -6.8D-17, -1.6D-15, r^2= 3.1D+00
   Bfn.  Coefficient  Atom+Function         Bfn.  Coefficient  Atom+Function  
  ----- ------------  ---------------      ----- ------------  ---------------
     8      1.032286  1 O  py                38      1.032286  3 O  py         
    23     -0.979190  2 C  py                 4     -0.591357  1 O  py         
    34     -0.591357  3 O  py                 7     -0.444589  1 O  px         
    37     -0.444589  3 O  px                22      0.421721  2 C  px         
     3      0.254688  1 O  px                33      0.254688  3 O  px         
 
 Vector   24  Occ=0.000000D+00  E= 1.044287D+00  Symmetry=eu
              MO Center= -7.5D-17, -8.0D-17, -1.9D-16, r^2= 3.1D+00
   Bfn.  Coefficient  Atom+Function         Bfn.  Coefficient  Atom+Function  
  ----- ------------  ---------------      ----- ------------  ---------------
     7      1.032286  1 O  px                37      1.032286  3 O  px         
    22     -0.979190  2 C  px                 3     -0.591357  1 O  px         
    33     -0.591357  3 O  px                 8      0.444589  1 O  py         
    38      0.444589  3 O  py                23     -0.421721  2 C  py         
     4     -0.254688  1 O  py                34     -0.254688  3 O  py         
 
 Vector   25  Occ=0.000000D+00  E= 1.056080D+00  Symmetry=a2u
              MO Center= -2.1D-17,  1.1D-17, -1.3D-16, r^2= 1.9D+00
   Bfn.  Coefficient  Atom+Function         Bfn.  Coefficient  Atom+Function  
  ----- ------------  ---------------      ----- ------------  ---------------
     6      1.060872  1 O  s                 36     -1.060872  3 O  s          
    24      0.989840  2 C  pz                 5      0.737970  1 O  pz         
    35      0.737970  3 O  pz                20      0.603674  2 C  pz         
     9     -0.367898  1 O  pz                39     -0.367898  3 O  pz         
    15     -0.173732  1 O  dzz               45      0.173732  3 O  dzz        
 
 Vector   26  Occ=0.000000D+00  E= 1.382365D+00  Symmetry=a1g
              MO Center= -1.2D-16,  2.8D-16, -1.9D-15, r^2= 2.5D+00
   Bfn.  Coefficient  Atom+Function         Bfn.  Coefficient  Atom+Function  
  ----- ------------  ---------------      ----- ------------  ---------------
    21     -3.788805  2 C  s                  6      3.581165  1 O  s          
    36      3.581165  3 O  s                  9      1.369504  1 O  pz         
    39     -1.369504  3 O  pz                 2     -1.159151  1 O  s          
    32     -1.159151  3 O  s                 17     -0.429825  2 C  s          
    15     -0.397020  1 O  dzz               45     -0.397020  3 O  dzz        
 
 Vector   27  Occ=0.000000D+00  E= 1.390361D+00  Symmetry=b1g
              MO Center=  8.3D-17,  8.7D-17, -1.4D-16, r^2= 1.1D+00
   Bfn.  Coefficient  Atom+Function         Bfn.  Coefficient  Atom+Function  
  ----- ------------  ---------------      ----- ------------  ---------------
    25      0.632299  2 C  dxx               28     -0.632299  2 C  dyy        
    10      0.335985  1 O  dxx               13     -0.335985  1 O  dyy        
    40      0.335985  3 O  dxx               43     -0.335985  3 O  dyy        
 
 Vector   28  Occ=0.000000D+00  E= 1.390361D+00  Symmetry=b2g
              MO Center=  6.8D-17,  7.1D-17, -1.4D-16, r^2= 1.1D+00
   Bfn.  Coefficient  Atom+Function         Bfn.  Coefficient  Atom+Function  
  ----- ------------  ---------------      ----- ------------  ---------------
    26      1.264598  2 C  dxy               11      0.671970  1 O  dxy        
    41      0.671970  3 O  dxy        
 
 Vector   29  Occ=0.000000D+00  E= 1.413951D+00  Symmetry=eg
              MO Center= -3.5D-18,  4.0D-20,  2.6D-16, r^2= 1.4D+00
   Bfn.  Coefficient  Atom+Function         Bfn.  Coefficient  Atom+Function  
  ----- ------------  ---------------      ----- ------------  ---------------
    27      0.795009  2 C  dxz               12     -0.639769  1 O  dxz        
    42     -0.639769  3 O  dxz               29     -0.459133  2 C  dyz        
    14      0.369479  1 O  dyz               44      0.369479  3 O  dyz        
     3      0.153002  1 O  px                33     -0.153002  3 O  px         
     4     -0.088361  1 O  py                34      0.088361  3 O  py         
 
 Vector   30  Occ=0.000000D+00  E= 1.413951D+00  Symmetry=eg
              MO Center= -8.0D-19, -1.4D-18, -4.1D-17, r^2= 1.4D+00
   Bfn.  Coefficient  Atom+Function         Bfn.  Coefficient  Atom+Function  
  ----- ------------  ---------------      ----- ------------  ---------------
    29      0.795009  2 C  dyz               14     -0.639769  1 O  dyz        
    44     -0.639769  3 O  dyz               27      0.459133  2 C  dxz        
    12     -0.369479  1 O  dxz               42     -0.369479  3 O  dxz        
     4      0.153002  1 O  py                34     -0.153002  3 O  py         
     3      0.088361  1 O  px                33     -0.088361  3 O  px         
 
 Vector   31  Occ=0.000000D+00  E= 1.725559D+00  Symmetry=b2u
              MO Center=  9.3D-17,  1.4D-17,  1.1D-15, r^2= 2.0D+00
   Bfn.  Coefficient  Atom+Function         Bfn.  Coefficient  Atom+Function  
  ----- ------------  ---------------      ----- ------------  ---------------
    10      0.612513  1 O  dxx               13     -0.612513  1 O  dyy        
    40     -0.612513  3 O  dxx               43      0.612513  3 O  dyy        
 
 Vector   32  Occ=0.000000D+00  E= 1.725559D+00  Symmetry=b1u
              MO Center=  1.9D-17, -1.2D-16, -1.9D-17, r^2= 2.0D+00
   Bfn.  Coefficient  Atom+Function         Bfn.  Coefficient  Atom+Function  
  ----- ------------  ---------------      ----- ------------  ---------------
    11      1.225026  1 O  dxy               41     -1.225026  3 O  dxy        
 
 Vector   33  Occ=0.000000D+00  E= 1.834590D+00  Symmetry=a2u
              MO Center= -4.0D-18,  1.0D-17,  2.1D-15, r^2= 2.8D+00
   Bfn.  Coefficient  Atom+Function         Bfn.  Coefficient  Atom+Function  
  ----- ------------  ---------------      ----- ------------  ---------------
     6      6.082469  1 O  s                 36     -6.082469  3 O  s          
    24      5.302534  2 C  pz                 2     -1.637198  1 O  s          
    32      1.637198  3 O  s                  9      1.389849  1 O  pz         
    39      1.389849  3 O  pz                15     -0.484930  1 O  dzz        
    45      0.484930  3 O  dzz               10     -0.170658  1 O  dxx        
 
 Vector   34  Occ=0.000000D+00  E= 2.035860D+00  Symmetry=b1g
              MO Center=  4.4D-16, -4.3D-16, -5.4D-16, r^2= 1.5D+00
   Bfn.  Coefficient  Atom+Function         Bfn.  Coefficient  Atom+Function  
  ----- ------------  ---------------      ----- ------------  ---------------
    25      0.619454  2 C  dxx               28     -0.619454  2 C  dyy        
    10     -0.527918  1 O  dxx               13      0.527918  1 O  dyy        
    40     -0.527918  3 O  dxx               43      0.527918  3 O  dyy        
 
 Vector   35  Occ=0.000000D+00  E= 2.035860D+00  Symmetry=b2g
              MO Center=  3.8D-17,  7.4D-17,  2.1D-16, r^2= 1.5D+00
   Bfn.  Coefficient  Atom+Function         Bfn.  Coefficient  Atom+Function  
  ----- ------------  ---------------      ----- ------------  ---------------
    26      1.238909  2 C  dxy               11     -1.055836  1 O  dxy        
    41     -1.055836  3 O  dxy        
 
 Vector   36  Occ=0.000000D+00  E= 2.135185D+00  Symmetry=eu
              MO Center=  7.5D-19,  6.4D-19,  7.0D-16, r^2= 1.9D+00
   Bfn.  Coefficient  Atom+Function         Bfn.  Coefficient  Atom+Function  
  ----- ------------  ---------------      ----- ------------  ---------------
    12      1.041380  1 O  dxz               42     -1.041380  3 O  dxz        
    14      0.902639  1 O  dyz               44     -0.902639  3 O  dyz        
    18     -0.385929  2 C  px                 7      0.334849  1 O  px         
    19     -0.334512  2 C  py                37      0.334849  3 O  px         
    22     -0.322596  2 C  px                 8      0.290238  1 O  py         
 
 Vector   37  Occ=0.000000D+00  E= 2.135185D+00  Symmetry=eu
              MO Center= -1.9D-19,  1.8D-19, -3.9D-16, r^2= 1.9D+00
   Bfn.  Coefficient  Atom+Function         Bfn.  Coefficient  Atom+Function  
  ----- ------------  ---------------      ----- ------------  ---------------
    14      1.041380  1 O  dyz               44     -1.041380  3 O  dyz        
    12     -0.902639  1 O  dxz               42      0.902639  3 O  dxz        
    19     -0.385929  2 C  py                 8      0.334849  1 O  py         
    18      0.334512  2 C  px                38      0.334849  3 O  py         
    23     -0.322596  2 C  py                 7     -0.290238  1 O  px         
 
 Vector   38  Occ=0.000000D+00  E= 2.751324D+00  Symmetry=a1g
              MO Center=  6.4D-18, -3.7D-18,  5.8D-16, r^2= 1.9D+00
   Bfn.  Coefficient  Atom+Function         Bfn.  Coefficient  Atom+Function  
  ----- ------------  ---------------      ----- ------------  ---------------
     6      1.672100  1 O  s                 36      1.672100  3 O  s          
     9      1.236186  1 O  pz                21     -1.230752  2 C  s          
    39     -1.236186  3 O  pz                17     -0.962120  2 C  s          
     2     -0.873710  1 O  s                 32     -0.873710  3 O  s          
    15      0.804695  1 O  dzz               45      0.804695  3 O  dzz        
 
 Vector   39  Occ=0.000000D+00  E= 2.926275D+00  Symmetry=a2u
              MO Center=  1.1D-17, -7.3D-18, -1.8D-15, r^2= 2.2D+00
   Bfn.  Coefficient  Atom+Function         Bfn.  Coefficient  Atom+Function  
  ----- ------------  ---------------      ----- ------------  ---------------
     6      2.733273  1 O  s                 36     -2.733273  3 O  s          
    20      1.827802  2 C  pz                24      1.715213  2 C  pz         
     9      1.322513  1 O  pz                39      1.322513  3 O  pz         
    15      0.985367  1 O  dzz               45     -0.985367  3 O  dzz        
     2     -0.636289  1 O  s                 32      0.636289  3 O  s          
 
 Vector   40  Occ=0.000000D+00  E= 2.969970D+00  Symmetry=eg
              MO Center= -3.6D-18,  1.8D-17,  3.6D-16, r^2= 1.6D+00
   Bfn.  Coefficient  Atom+Function         Bfn.  Coefficient  Atom+Function  
  ----- ------------  ---------------      ----- ------------  ---------------
    29      2.288659  2 C  dyz               14      1.432324  1 O  dyz        
    44      1.432324  3 O  dyz               27     -0.378965  2 C  dxz        
     8      0.308801  1 O  py                38     -0.308801  3 O  py         
    12     -0.237170  1 O  dxz               42     -0.237170  3 O  dxz        
     4      0.145862  1 O  py                34     -0.145862  3 O  py         
 
 Vector   41  Occ=0.000000D+00  E= 2.969970D+00  Symmetry=eg
              MO Center= -3.0D-20,  4.1D-19, -1.3D-15, r^2= 1.6D+00
   Bfn.  Coefficient  Atom+Function         Bfn.  Coefficient  Atom+Function  
  ----- ------------  ---------------      ----- ------------  ---------------
    27      2.288659  2 C  dxz               12      1.432324  1 O  dxz        
    42      1.432324  3 O  dxz               29      0.378965  2 C  dyz        
     7      0.308801  1 O  px                37     -0.308801  3 O  px         
    14      0.237170  1 O  dyz               44      0.237170  3 O  dyz        
     3      0.145862  1 O  px                33     -0.145862  3 O  px         
 
 Vector   42  Occ=0.000000D+00  E= 3.066205D+00  Symmetry=a1g
              MO Center= -4.6D-18,  5.8D-18,  4.5D-15, r^2= 1.8D+00
   Bfn.  Coefficient  Atom+Function         Bfn.  Coefficient  Atom+Function  
  ----- ------------  ---------------      ----- ------------  ---------------
    17      2.796839  2 C  s                 21      1.481216  2 C  s          
    25     -1.188659  2 C  dxx               28     -1.188659  2 C  dyy        
    15     -1.141124  1 O  dzz               45     -1.141124  3 O  dzz        
    30      1.057271  2 C  dzz                6     -0.970112  1 O  s          
    36     -0.970112  3 O  s                  9     -0.837318  1 O  pz         
 
 Vector   43  Occ=0.000000D+00  E= 3.754973D+00  Symmetry=a1g
              MO Center= -1.1D-18,  1.8D-18,  6.6D-15, r^2= 2.5D+00
   Bfn.  Coefficient  Atom+Function         Bfn.  Coefficient  Atom+Function  
  ----- ------------  ---------------      ----- ------------  ---------------
     6      4.449857  1 O  s                 36      4.449857  3 O  s          
    21     -3.189511  2 C  s                 10     -1.381569  1 O  dxx        
    13     -1.381569  1 O  dyy               40     -1.381569  3 O  dxx        
    43     -1.381569  3 O  dyy                9      1.226462  1 O  pz         
    39     -1.226462  3 O  pz                17     -1.098391  2 C  s          
 
 Vector   44  Occ=0.000000D+00  E= 4.410200D+00  Symmetry=a1g
              MO Center=  2.1D-19, -2.9D-19,  3.9D-14, r^2= 9.9D-01
   Bfn.  Coefficient  Atom+Function         Bfn.  Coefficient  Atom+Function  
  ----- ------------  ---------------      ----- ------------  ---------------
    30      3.243888  2 C  dzz               17     -1.881877  2 C  s          
     6     -1.552214  1 O  s                 36     -1.552214  3 O  s          
    25      1.262347  2 C  dxx               28      1.262347  2 C  dyy        
     9     -1.012495  1 O  pz                21      1.016655  2 C  s          
    39      1.012495  3 O  pz                 5     -0.654141  1 O  pz         
 
 Vector   45  Occ=0.000000D+00  E= 4.460441D+00  Symmetry=a2u
              MO Center= -5.0D-18, -4.9D-19, -4.3D-14, r^2= 2.7D+00
   Bfn.  Coefficient  Atom+Function         Bfn.  Coefficient  Atom+Function  
  ----- ------------  ---------------      ----- ------------  ---------------
     6      8.385863  1 O  s                 36     -8.385863  3 O  s          
    24      5.554391  2 C  pz                 9      1.652794  1 O  pz         
    39      1.652794  3 O  pz                10     -1.602431  1 O  dxx        
    13     -1.602431  1 O  dyy               40      1.602431  3 O  dxx        
    43      1.602431  3 O  dyy               15     -1.451922  1 O  dzz        
 

 center of mass
 --------------
 x =   0.00000000 y =   0.00000000 z =   0.00000000

 moments of inertia (a.u.)
 ------------------
         153.718255237870           0.000000000000           0.000000000000
           0.000000000000         153.718255237870           0.000000000000
           0.000000000000           0.000000000000           0.000000000000
 
     Multipole analysis of the density
     ---------------------------------
 
     L   x y z        total         alpha         beta         nuclear
     -   - - -        -----         -----         ----         -------
     0   0 0 0     -0.000000    -11.000000    -11.000000     22.000000
 
     1   1 0 0      0.000000      0.000000      0.000000      0.000000
     1   0 1 0      0.000000      0.000000      0.000000      0.000000
     1   0 0 1      0.000000      0.000000      0.000000      0.000000
 
     2   2 0 0    -10.711435     -5.355717     -5.355717      0.000000
     2   1 1 0      0.000000      0.000000      0.000000      0.000000
     2   1 0 1     -0.000000     -0.000000     -0.000000      0.000000
     2   0 2 0    -10.711435     -5.355717     -5.355717      0.000000
     2   0 1 1     -0.000000     -0.000000     -0.000000      0.000000
     2   0 0 2    -14.039213    -45.461400    -45.461400     76.883586
 

 Parallel integral file used      19 records with       0 large values

 
            General Information
            -------------------
          SCF calculation type: DFT
          Wavefunction type:  closed shell.
          No. of atoms     :     3
          No. of electrons :    22
           Alpha electrons :    11
            Beta electrons :    11
          Charge           :     0
          Spin multiplicity:     1
          Use of symmetry is: on ; symmetry adaption is: on 
          Maximum number of iterations:  50
          AO basis - number of functions:    45
                     number of shells:    18
          Convergence on energy requested:  1.00D-06
          Convergence on density requested:  1.00D-05
          Convergence on gradient requested:  5.00D-04
 
              XC Information
              --------------
                         B3LYP Method XC Potential
                     Hartree-Fock (Exact) Exchange  0.200          
                        Slater Exchange Functional  0.800 local    
                    Becke 1988 Exchange Functional  0.720 non-local
              Lee-Yang-Parr Correlation Functional  0.810          
                  VWN I RPA Correlation Functional  0.190 local    
 
             Grid Information
             ----------------
          Grid used for XC integration:  xfine     
          Radial quadrature: Mura-Knowles        
          Angular quadrature: Lebedev. 
          Tag              B.-S. Rad. Rad. Pts. Rad. Cut. Ang. Pts.
          ---              ---------- --------- --------- ---------
          O                   0.60      100           7.0      1454
          C                   0.70      100           6.0      1454
          Grid pruning is: on 
          Number of quadrature shells:   200
          Spatial weights used:  Erf1
 
          Convergence Information
          -----------------------
          Convergence aids based upon iterative change in 
          total energy or number of iterations. 
          Levelshifting, if invoked, occurs when the 
          HOMO/LUMO gap drops below (HL_TOL):  1.00D-02
          DIIS, if invoked, will attempt to extrapolate 
          using up to (NFOCK): 10 stored Fock matrices.

                    Damping( 0%)  Levelshifting(0.5)       DIIS
                  --------------- ------------------- ---------------
          dE  on:    start            ASAP                start   
          dE off:    2 iters         50 iters            50 iters 

 
      Screening Tolerance Information
      -------------------------------
          Density screening/tol_rho:  1.00D-10
          AO Gaussian exp screening on grid/accAOfunc:  14
          CD Gaussian exp screening on grid/accCDfunc:  20
          XC Gaussian exp screening on grid/accXCfunc:  20
          Schwarz screening/accCoul:  1.00D-08

 
 
                            NWChem DFT Gradient Module
                            --------------------------
 
 
                      carbon_dioxide opt+freq (B3LYP/6-31g*)
 
 

  charge          =   0.00
  wavefunction    = closed shell

  Using symmetry


                         DFT ENERGY GRADIENTS

    atom               coordinates                        gradient
                 x          y          z           x          y          z
   1 O       0.000000   0.000000  -2.192082    0.000000   0.000000   0.020368
   2 C       0.000000   0.000000   0.000000    0.000000   0.000000   0.000000
   3 O       0.000000   0.000000   2.192082    0.000000  -0.000000  -0.020368
 
                 ----------------------------------------
                 |  Time  |  1-e(secs)   |  2-e(secs)   |
                 ----------------------------------------
                 |  CPU   |       0.00   |       0.01   |
                 ----------------------------------------
                 |  WALL  |       0.00   |       0.02   |
                 ----------------------------------------

@ Step       Energy      Delta E   Gmax     Grms     Xrms     Xmax   Walltime
@ ---- ---------------- -------- -------- -------- -------- -------- --------
@    0    -188.58059041  0.0D+00  0.02037  0.00960  0.00000  0.00000      6.1
                                                                    

 
                                 NWChem DFT Module
                                 -----------------
 
 
                      carbon_dioxide opt+freq (B3LYP/6-31g*)
 
 


 Summary of "ao basis" -> "ao basis" (cartesian)
 ------------------------------------------------------------------------------
       Tag                 Description            Shells   Functions and Types
 ---------------- ------------------------------  ------  ---------------------
 O                           6-31g*                  6       15   3s2p1d
 C                           6-31g*                  6       15   3s2p1d


      Symmetry analysis of basis
      --------------------------
 
        a1g        12
        a1u         0
        a2g         0
        a2u         9
        b1g         2
        b1u         1
        b2g         2
        b2u         1
        eg          8
        eu         10
 
  Caching 1-el integrals 
 
            General Information
            -------------------
          SCF calculation type: DFT
          Wavefunction type:  closed shell.
          No. of atoms     :     3
          No. of electrons :    22
           Alpha electrons :    11
            Beta electrons :    11
          Charge           :     0
          Spin multiplicity:     1
          Use of symmetry is: on ; symmetry adaption is: on 
          Maximum number of iterations:  50
          AO basis - number of functions:    45
                     number of shells:    18
          Convergence on energy requested:  1.00D-06
          Convergence on density requested:  1.00D-05
          Convergence on gradient requested:  5.00D-04
 
              XC Information
              --------------
                         B3LYP Method XC Potential
                     Hartree-Fock (Exact) Exchange  0.200          
                        Slater Exchange Functional  0.800 local    
                    Becke 1988 Exchange Functional  0.720 non-local
              Lee-Yang-Parr Correlation Functional  0.810          
                  VWN I RPA Correlation Functional  0.190 local    
 
             Grid Information
             ----------------
          Grid used for XC integration:  xfine     
          Radial quadrature: Mura-Knowles        
          Angular quadrature: Lebedev. 
          Tag              B.-S. Rad. Rad. Pts. Rad. Cut. Ang. Pts.
          ---              ---------- --------- --------- ---------
          O                   0.60      100           7.0      1454
          C                   0.70      100           6.0      1454
          Grid pruning is: on 
          Number of quadrature shells:   200
          Spatial weights used:  Erf1
 
          Convergence Information
          -----------------------
          Convergence aids based upon iterative change in 
          total energy or number of iterations. 
          Levelshifting, if invoked, occurs when the 
          HOMO/LUMO gap drops below (HL_TOL):  1.00D-02
          DIIS, if invoked, will attempt to extrapolate 
          using up to (NFOCK): 10 stored Fock matrices.

                    Damping( 0%)  Levelshifting(0.5)       DIIS
                  --------------- ------------------- ---------------
          dE  on:    start            ASAP                start   
          dE off:    2 iters         50 iters            50 iters 

 
      Screening Tolerance Information
      -------------------------------
          Density screening/tol_rho:  1.00D-10
          AO Gaussian exp screening on grid/accAOfunc:  14
          CD Gaussian exp screening on grid/accCDfunc:  20
          XC Gaussian exp screening on grid/accXCfunc:  20
          Schwarz screening/accCoul:  1.00D-08


 Loading old vectors from job with title :

carbon_dioxide opt+freq (B3LYP/6-31g*)

 
      Symmetry analysis of molecular orbitals - initial
      -------------------------------------------------
 
  Numbering of irreducible representations: 
 
     1 a1g         2 a1u         3 a2g         4 a2u         5 b1g     
     6 b1u         7 b2g         8 b2u         9 eg         10 eu      
 
  Orbital symmetries:
 
     1 a1g         2 a2u         3 a1g         4 a1g         5 a2u     
     6 a1g         7 a2u         8 eu          9 eu         10 eg      
    11 eg         12 eu         13 eu         14 a1g        15 a2u     
    16 eu         17 eu         18 a1g        19 a2u        20 a1g     
    21 eg      
 
   Time after variat. SCF:      7.6
   Time prior to 1st pass:      7.6

 #quartets = 8.851D+03 #integrals = 9.690D+04 #direct =  0.0% #cached =100.0%


 Integral file          = ./carbon_dioxide.aoints.00
 Record size in doubles =  65536        No. of integs per rec  =  43688
 Max. records in memory =      3        Max. records in file   = 224879
 No. of bits per label  =      8        No. of bits per value  =     64


File balance: exchanges=     0  moved=     0  time=   0.0


 Grid_pts file          = ./carbon_dioxide.gridpts.00
 Record size in doubles =  12289        No. of grid_pts per rec  =   3070
 Max. records in memory =      7        Max. recs in file   =   1199263


           Memory utilization after 1st SCF pass: 
           Heap Space remaining (MW):       25.93            25929538
          Stack Space remaining (MW):       26.21            26214020

   convergence    iter        energy       DeltaE   RMS-Dens  Diis-err    time
 ---------------- ----- ----------------- --------- --------- ---------  ------
 d= 0,ls=0.0,diis     1   -188.5808194311 -2.47D+02  7.66D-04  8.37D-04     7.7
 d= 0,ls=0.0,diis     2   -188.5809202774 -1.01D-04  2.55D-04  2.06D-04     7.7
 d= 0,ls=0.0,diis     3   -188.5809326054 -1.23D-05  1.01D-04  7.95D-05     7.7
 d= 0,ls=0.0,diis     4   -188.5809379952 -5.39D-06  3.53D-05  1.22D-05     9.0
 d= 0,ls=0.0,diis     5   -188.5809392213 -1.23D-06  2.71D-06  4.49D-08     9.1
 d= 0,ls=0.0,diis     6   -188.5809392257 -4.35D-09  1.21D-07  2.40D-11    10.0


         Total DFT energy =     -188.580939225677
      One electron energy =     -371.974789480263
           Coulomb energy =      147.991394659083
    Exchange-Corr. energy =      -22.531990491363
 Nuclear repulsion energy =       57.934446086866

 Numeric. integr. density =       21.999999981957

     Total iterative time =      2.4s


 
                  Occupations of the irreducible representations
                  ----------------------------------------------
 
                     irrep           alpha         beta
                     --------     --------     --------
                     a1g               4.0          4.0
                     a1u               0.0          0.0
                     a2g               0.0          0.0
                     a2u               3.0          3.0
                     b1g               0.0          0.0
                     b1u               0.0          0.0
                     b2g               0.0          0.0
                     b2u               0.0          0.0
                     eg                2.0          2.0
                     eu                2.0          2.0
 
 
                       DFT Final Molecular Orbital Analysis
                       ------------------------------------
 
 Vector    1  Occ=2.000000D+00  E=-1.923659D+01  Symmetry=a1g
              MO Center=  0.0D+00,  0.0D+00, -1.4D-16, r^2= 1.4D+00
   Bfn.  Coefficient  Atom+Function         Bfn.  Coefficient  Atom+Function  
  ----- ------------  ---------------      ----- ------------  ---------------
     1      0.702039  1 O  s                 31      0.702039  3 O  s          
 
 Vector    2  Occ=2.000000D+00  E=-1.923659D+01  Symmetry=a2u
              MO Center=  9.1D-18,  7.6D-18,  4.7D-16, r^2= 1.4D+00
   Bfn.  Coefficient  Atom+Function         Bfn.  Coefficient  Atom+Function  
  ----- ------------  ---------------      ----- ------------  ---------------
     1      0.701823  1 O  s                 31     -0.701823  3 O  s          
 
 Vector    3  Occ=2.000000D+00  E=-1.038530D+01  Symmetry=a1g
              MO Center= -6.1D-20, -8.5D-21,  1.2D-18, r^2= 2.8D-02
   Bfn.  Coefficient  Atom+Function         Bfn.  Coefficient  Atom+Function  
  ----- ------------  ---------------      ----- ------------  ---------------
    16      0.992807  2 C  s                 17      0.049543  2 C  s          
 
 Vector    4  Occ=2.000000D+00  E=-1.160979D+00  Symmetry=a1g
              MO Center= -3.4D-16, -9.8D-18, -4.5D-15, r^2= 1.1D+00
   Bfn.  Coefficient  Atom+Function         Bfn.  Coefficient  Atom+Function  
  ----- ------------  ---------------      ----- ------------  ---------------
    17      0.302050  2 C  s                  2      0.291125  1 O  s          
    32      0.291125  3 O  s                  6      0.265380  1 O  s          
    36      0.265380  3 O  s                 16     -0.156733  2 C  s          
     1     -0.134762  1 O  s                 31     -0.134762  3 O  s          
     5      0.125691  1 O  pz                35     -0.125691  3 O  pz         
 
 Vector    5  Occ=2.000000D+00  E=-1.119638D+00  Symmetry=a2u
              MO Center=  4.5D-17, -2.8D-16,  4.1D-15, r^2= 1.2D+00
   Bfn.  Coefficient  Atom+Function         Bfn.  Coefficient  Atom+Function  
  ----- ------------  ---------------      ----- ------------  ---------------
    20     -0.336398  2 C  pz                 2      0.325411  1 O  s          
    32     -0.325411  3 O  s                  6      0.269827  1 O  s          
    36     -0.269827  3 O  s                  1     -0.146887  1 O  s          
    31      0.146887  3 O  s                  5      0.130064  1 O  pz         
    35      0.130064  3 O  pz         
 
 Vector    6  Occ=2.000000D+00  E=-5.623356D-01  Symmetry=a1g
              MO Center= -1.8D-16, -2.7D-17, -1.2D-14, r^2= 2.2D+00
   Bfn.  Coefficient  Atom+Function         Bfn.  Coefficient  Atom+Function  
  ----- ------------  ---------------      ----- ------------  ---------------
     6     -0.342664  1 O  s                 36     -0.342664  3 O  s          
     5      0.330474  1 O  pz                35     -0.330474  3 O  pz         
    17      0.314986  2 C  s                  2     -0.211856  1 O  s          
    32     -0.211856  3 O  s                 21      0.189952  2 C  s          
     9      0.172811  1 O  pz                39     -0.172811  3 O  pz         
 
 Vector    7  Occ=2.000000D+00  E=-5.165494D-01  Symmetry=a2u
              MO Center=  2.6D-16, -2.2D-16,  1.2D-14, r^2= 2.2D+00
   Bfn.  Coefficient  Atom+Function         Bfn.  Coefficient  Atom+Function  
  ----- ------------  ---------------      ----- ------------  ---------------
     5      0.393472  1 O  pz                35      0.393472  3 O  pz         
    20     -0.351224  2 C  pz                 6     -0.292108  1 O  s          
    36      0.292108  3 O  s                  9      0.182268  1 O  pz         
    39      0.182268  3 O  pz                 2     -0.156545  1 O  s          
    32      0.156545  3 O  s                  1      0.071477  1 O  s          
 
 Vector    8  Occ=2.000000D+00  E=-5.127680D-01  Symmetry=eu
              MO Center=  3.7D-16, -2.1D-16, -8.3D-18, r^2= 1.4D+00
   Bfn.  Coefficient  Atom+Function         Bfn.  Coefficient  Atom+Function  
  ----- ------------  ---------------      ----- ------------  ---------------
    18      0.349736  2 C  px                 3      0.306427  1 O  px         
    33      0.306427  3 O  px                19     -0.197370  2 C  py         
     4     -0.172929  1 O  py                34     -0.172929  3 O  py         
     7      0.167784  1 O  px                37      0.167784  3 O  px         
    22      0.137920  2 C  px                 8     -0.094687  1 O  py         
 
 Vector    9  Occ=2.000000D+00  E=-5.127680D-01  Symmetry=eu
              MO Center=  3.4D-16,  7.1D-16, -1.1D-15, r^2= 1.4D+00
   Bfn.  Coefficient  Atom+Function         Bfn.  Coefficient  Atom+Function  
  ----- ------------  ---------------      ----- ------------  ---------------
    19      0.349736  2 C  py                 4      0.306427  1 O  py         
    34      0.306427  3 O  py                18      0.197370  2 C  px         
     3      0.172929  1 O  px                33      0.172929  3 O  px         
     8      0.167784  1 O  py                38      0.167784  3 O  py         
    23      0.137920  2 C  py                 7      0.094687  1 O  px         
 
 Vector   10  Occ=2.000000D+00  E=-3.699687D-01  Symmetry=eg
              MO Center= -1.0D-16,  2.4D-17, -7.5D-16, r^2= 1.9D+00
   Bfn.  Coefficient  Atom+Function         Bfn.  Coefficient  Atom+Function  
  ----- ------------  ---------------      ----- ------------  ---------------
     3      0.426334  1 O  px                33     -0.426334  3 O  px         
     7      0.295853  1 O  px                37     -0.295853  3 O  px         
     4      0.203746  1 O  py                34     -0.203746  3 O  py         
     8      0.141389  1 O  py                38     -0.141389  3 O  py         
    27     -0.090185  2 C  dxz               29     -0.043100  2 C  dyz        
 
 Vector   11  Occ=2.000000D+00  E=-3.699687D-01  Symmetry=eg
              MO Center= -2.5D-16,  5.1D-16,  1.2D-15, r^2= 1.9D+00
   Bfn.  Coefficient  Atom+Function         Bfn.  Coefficient  Atom+Function  
  ----- ------------  ---------------      ----- ------------  ---------------
     4      0.426334  1 O  py                34     -0.426334  3 O  py         
     8      0.295853  1 O  py                38     -0.295853  3 O  py         
     3     -0.203746  1 O  px                33      0.203746  3 O  px         
     7     -0.141389  1 O  px                37      0.141389  3 O  px         
    29     -0.090185  2 C  dyz               27      0.043100  2 C  dxz        
 
 Vector   12  Occ=0.000000D+00  E= 2.991449D-02  Symmetry=eu
              MO Center= -9.7D-16,  1.8D-16,  7.8D-16, r^2= 1.5D+00
   Bfn.  Coefficient  Atom+Function         Bfn.  Coefficient  Atom+Function  
  ----- ------------  ---------------      ----- ------------  ---------------
    18      0.588084  2 C  px                22      0.583433  2 C  px         
     7     -0.384722  1 O  px                37     -0.384722  3 O  px         
     3     -0.368860  1 O  px                33     -0.368860  3 O  px         
    19     -0.119587  2 C  py                23     -0.118641  2 C  py         
     8      0.078233  1 O  py                38      0.078233  3 O  py         
 
 Vector   13  Occ=0.000000D+00  E= 2.991449D-02  Symmetry=eu
              MO Center= -1.5D-16, -3.5D-16, -3.6D-16, r^2= 1.5D+00
   Bfn.  Coefficient  Atom+Function         Bfn.  Coefficient  Atom+Function  
  ----- ------------  ---------------      ----- ------------  ---------------
    19      0.588084  2 C  py                23      0.583433  2 C  py         
     8     -0.384722  1 O  py                38     -0.384722  3 O  py         
     4     -0.368860  1 O  py                34     -0.368860  3 O  py         
    18      0.119587  2 C  px                22      0.118641  2 C  px         
     7     -0.078233  1 O  px                37     -0.078233  3 O  px         
 
 Vector   14  Occ=0.000000D+00  E= 8.433423D-02  Symmetry=a1g
              MO Center=  8.4D-16, -1.0D-16,  1.0D-14, r^2= 1.8D+00
   Bfn.  Coefficient  Atom+Function         Bfn.  Coefficient  Atom+Function  
  ----- ------------  ---------------      ----- ------------  ---------------
    21      2.230627  2 C  s                  6     -0.868064  1 O  s          
    36     -0.868064  3 O  s                  9     -0.558701  1 O  pz         
    39      0.558701  3 O  pz                 5     -0.298213  1 O  pz         
    35      0.298213  3 O  pz                 2     -0.174674  1 O  s          
    32     -0.174674  3 O  s                 16     -0.099550  2 C  s          
 
 Vector   15  Occ=0.000000D+00  E= 3.657522D-01  Symmetry=a2u
              MO Center= -5.3D-17,  4.4D-17, -1.9D-14, r^2= 3.7D+00
   Bfn.  Coefficient  Atom+Function         Bfn.  Coefficient  Atom+Function  
  ----- ------------  ---------------      ----- ------------  ---------------
    24      4.142387  2 C  pz                 6      3.000851  1 O  s          
    36     -3.000851  3 O  s                  9      0.875324  1 O  pz         
    39      0.875324  3 O  pz                 1     -0.102543  1 O  s          
    31      0.102543  3 O  s                  5     -0.095059  1 O  pz         
    35     -0.095059  3 O  pz                10     -0.081603  1 O  dxx        
 
 Vector   16  Occ=0.000000D+00  E= 4.726061D-01  Symmetry=eu
              MO Center= -1.5D-18, -7.9D-18,  2.5D-16, r^2= 2.1D+00
   Bfn.  Coefficient  Atom+Function         Bfn.  Coefficient  Atom+Function  
  ----- ------------  ---------------      ----- ------------  ---------------
    23      1.117667  2 C  py                19     -0.789297  2 C  py         
    22      0.684689  2 C  px                18     -0.483528  2 C  px         
     8     -0.119071  1 O  py                38     -0.119071  3 O  py         
     4     -0.100941  1 O  py                34     -0.100941  3 O  py         
    14     -0.091066  1 O  dyz               44      0.091066  3 O  dyz        
 
 Vector   17  Occ=0.000000D+00  E= 4.726061D-01  Symmetry=eu
              MO Center= -7.9D-19,  4.8D-19, -3.1D-17, r^2= 2.1D+00
   Bfn.  Coefficient  Atom+Function         Bfn.  Coefficient  Atom+Function  
  ----- ------------  ---------------      ----- ------------  ---------------
    22      1.117667  2 C  px                18     -0.789297  2 C  px         
    23     -0.684689  2 C  py                19      0.483528  2 C  py         
     7     -0.119071  1 O  px                37     -0.119071  3 O  px         
     3     -0.100941  1 O  px                33     -0.100941  3 O  px         
    12     -0.091066  1 O  dxz               42      0.091066  3 O  dxz        
 
 Vector   18  Occ=0.000000D+00  E= 5.843476D-01  Symmetry=a1g
              MO Center= -3.0D-17, -6.3D-17,  1.4D-15, r^2= 1.8D+00
   Bfn.  Coefficient  Atom+Function         Bfn.  Coefficient  Atom+Function  
  ----- ------------  ---------------      ----- ------------  ---------------
    21      2.066056  2 C  s                 17     -1.112650  2 C  s          
     6     -0.536621  1 O  s                 36     -0.536621  3 O  s          
     9     -0.449193  1 O  pz                39      0.449193  3 O  pz         
     5      0.378563  1 O  pz                35     -0.378563  3 O  pz         
    30      0.303227  2 C  dzz               15     -0.226021  1 O  dzz        
 
 Vector   19  Occ=0.000000D+00  E= 7.352476D-01  Symmetry=a2u
              MO Center= -6.1D-17,  2.2D-17,  1.1D-14, r^2= 2.6D+00
   Bfn.  Coefficient  Atom+Function         Bfn.  Coefficient  Atom+Function  
  ----- ------------  ---------------      ----- ------------  ---------------
    20      1.092324  2 C  pz                 9      0.861726  1 O  pz         
    39      0.861726  3 O  pz                 2      0.249899  1 O  s          
    32     -0.249899  3 O  s                 24     -0.198549  2 C  pz         
     6      0.120278  1 O  s                 36     -0.120278  3 O  s          
    10      0.096182  1 O  dxx               13      0.096182  1 O  dyy        
 
 Vector   20  Occ=0.000000D+00  E= 7.815412D-01  Symmetry=a1g
              MO Center=  5.2D-17,  2.7D-18, -8.4D-15, r^2= 4.1D+00
   Bfn.  Coefficient  Atom+Function         Bfn.  Coefficient  Atom+Function  
  ----- ------------  ---------------      ----- ------------  ---------------
    17     -1.075410  2 C  s                  9      1.004985  1 O  pz         
    39     -1.004985  3 O  pz                 2      0.378015  1 O  s          
    32      0.378015  3 O  s                 30     -0.343950  2 C  dzz        
     5     -0.327462  1 O  pz                35      0.327462  3 O  pz         
     6     -0.255266  1 O  s                 36     -0.255266  3 O  s          
 
 Vector   21  Occ=0.000000D+00  E= 8.741939D-01  Symmetry=eg
              MO Center= -2.7D-17, -2.2D-17,  5.8D-15, r^2= 2.8D+00
   Bfn.  Coefficient  Atom+Function         Bfn.  Coefficient  Atom+Function  
  ----- ------------  ---------------      ----- ------------  ---------------
     8      0.810952  1 O  py                38     -0.810952  3 O  py         
     4     -0.647848  1 O  py                34      0.647848  3 O  py         
    29      0.229435  2 C  dyz                7     -0.029875  1 O  px         
    37      0.029875  3 O  px         
 
 Vector   22  Occ=0.000000D+00  E= 8.741939D-01  Symmetry=eg
              MO Center=  9.5D-17,  6.3D-18,  4.4D-15, r^2= 2.8D+00
   Bfn.  Coefficient  Atom+Function         Bfn.  Coefficient  Atom+Function  
  ----- ------------  ---------------      ----- ------------  ---------------
     7      0.810952  1 O  px                37     -0.810952  3 O  px         
     3     -0.647848  1 O  px                33      0.647848  3 O  px         
    27      0.229435  2 C  dxz                8      0.029875  1 O  py         
    38     -0.029875  3 O  py         
 
 Vector   23  Occ=0.000000D+00  E= 1.037737D+00  Symmetry=a2u
              MO Center=  6.0D-17, -5.8D-18,  2.0D-15, r^2= 2.0D+00
   Bfn.  Coefficient  Atom+Function         Bfn.  Coefficient  Atom+Function  
  ----- ------------  ---------------      ----- ------------  ---------------
     6      1.017190  1 O  s                 36     -1.017190  3 O  s          
    24      0.952834  2 C  pz                 5      0.738432  1 O  pz         
    35      0.738432  3 O  pz                20      0.554322  2 C  pz         
     9     -0.404291  1 O  pz                39     -0.404291  3 O  pz         
    15     -0.162797  1 O  dzz               45      0.162797  3 O  dzz        
 
 Vector   24  Occ=0.000000D+00  E= 1.041658D+00  Symmetry=eu
              MO Center=  4.2D-16,  3.9D-17, -2.3D-15, r^2= 3.1D+00
   Bfn.  Coefficient  Atom+Function         Bfn.  Coefficient  Atom+Function  
  ----- ------------  ---------------      ----- ------------  ---------------
     7      1.094840  1 O  px                37      1.094840  3 O  px         
    22     -1.030503  2 C  px                 3     -0.631245  1 O  px         
    33     -0.631245  3 O  px                 8     -0.215355  1 O  py         
    38     -0.215355  3 O  py                23      0.202700  2 C  py         
    18      0.177893  2 C  px                12     -0.126245  1 O  dxz        
 
 Vector   25  Occ=0.000000D+00  E= 1.041658D+00  Symmetry=eu
              MO Center=  1.6D-20,  8.3D-20, -7.2D-15, r^2= 3.1D+00
   Bfn.  Coefficient  Atom+Function         Bfn.  Coefficient  Atom+Function  
  ----- ------------  ---------------      ----- ------------  ---------------
     8      1.094840  1 O  py                38      1.094840  3 O  py         
    23     -1.030503  2 C  py                 4     -0.631245  1 O  py         
    34     -0.631245  3 O  py                 7      0.215355  1 O  px         
    37      0.215355  3 O  px                22     -0.202700  2 C  px         
    19      0.177893  2 C  py                14     -0.126245  1 O  dyz        
 
 Vector   26  Occ=0.000000D+00  E= 1.377426D+00  Symmetry=a1g
              MO Center= -2.3D-17, -6.8D-17,  1.7D-15, r^2= 2.5D+00
   Bfn.  Coefficient  Atom+Function         Bfn.  Coefficient  Atom+Function  
  ----- ------------  ---------------      ----- ------------  ---------------
    21     -3.741680  2 C  s                  6      3.540566  1 O  s          
    36      3.540566  3 O  s                  9      1.365542  1 O  pz         
    39     -1.365542  3 O  pz                 2     -1.156998  1 O  s          
    32     -1.156998  3 O  s                 15     -0.394093  1 O  dzz        
    17     -0.395461  2 C  s                 45     -0.394093  3 O  dzz        
 
 Vector   27  Occ=0.000000D+00  E= 1.393881D+00  Symmetry=b1g
              MO Center= -3.7D-16, -9.8D-17, -5.6D-17, r^2= 1.1D+00
   Bfn.  Coefficient  Atom+Function         Bfn.  Coefficient  Atom+Function  
  ----- ------------  ---------------      ----- ------------  ---------------
    25      0.635166  2 C  dxx               28     -0.635166  2 C  dyy        
    10      0.335729  1 O  dxx               13     -0.335729  1 O  dyy        
    40      0.335729  3 O  dxx               43     -0.335729  3 O  dyy        
 
 Vector   28  Occ=0.000000D+00  E= 1.393881D+00  Symmetry=b2g
              MO Center=  9.8D-17,  8.4D-17,  2.9D-17, r^2= 1.1D+00
   Bfn.  Coefficient  Atom+Function         Bfn.  Coefficient  Atom+Function  
  ----- ------------  ---------------      ----- ------------  ---------------
    26      1.270332  2 C  dxy               11      0.671458  1 O  dxy        
    41      0.671458  3 O  dxy        
 
 Vector   29  Occ=0.000000D+00  E= 1.406402D+00  Symmetry=eg
              MO Center= -8.7D-18,  1.1D-17,  8.0D-16, r^2= 1.4D+00
   Bfn.  Coefficient  Atom+Function         Bfn.  Coefficient  Atom+Function  
  ----- ------------  ---------------      ----- ------------  ---------------
    29      0.800221  2 C  dyz               14     -0.634527  1 O  dyz        
    44     -0.634527  3 O  dyz               27     -0.468965  2 C  dxz        
    12      0.371861  1 O  dxz               42      0.371861  3 O  dxz        
     4      0.146037  1 O  py                34     -0.146037  3 O  py         
     3     -0.085584  1 O  px                33      0.085584  3 O  px         
 
 Vector   30  Occ=0.000000D+00  E= 1.406402D+00  Symmetry=eg
              MO Center= -1.1D-17, -1.5D-17, -1.2D-15, r^2= 1.4D+00
   Bfn.  Coefficient  Atom+Function         Bfn.  Coefficient  Atom+Function  
  ----- ------------  ---------------      ----- ------------  ---------------
    27      0.800221  2 C  dxz               12     -0.634527  1 O  dxz        
    42     -0.634527  3 O  dxz               29      0.468965  2 C  dyz        
    14     -0.371861  1 O  dyz               44     -0.371861  3 O  dyz        
[...]
                                ------------------
 
 
  scftype          =     RHF 
  nclosed          =       11
  nopen            =        0
  variables        =      374
  # of vectors     =        9
  tolerance        = 0.10D-03
  level shift      = 0.00D+00
  max iterations   =       50
  max subspace     =       90


 #quartets = 1.452D+04 #integrals = 1.623D+05 #direct =  0.0% #cached =100.0%


 Integral file          = ./carbon_dioxide.aoints.00
 Record size in doubles =  65536        No. of integs per rec  =  43688
 Max. records in memory =      3        Max. records in file   = 224877
 No. of bits per label  =      8        No. of bits per value  =     64


File balance: exchanges=     0  moved=     0  time=   0.0

 Grid integrated density:      21.999999991183
 Requested integration accuracy:   0.10E-13
 SCF residual:   4.091155797283819E-007


Iterative solution of linear equations
  No. of variables      374
  No. of equations        9
  Maximum subspace       90
        Iterations       50
       Convergence  1.0D-04
        Start time     23.7


   iter   nsub   residual    time
   ----  ------  --------  ---------
     1      9    6.67D-01      25.5
     2     18    8.83D-01      28.4
     3     27    5.50D-02      28.7
     4     36    2.55D-03      29.0
     5     45    5.35D-04      29.2
     6     54    1.55D-05      29.5

 Parallel integral file used      19 records with       0 large values

 HESSIAN: the CPHF contributions are done
  stpr_wrt_fd_from_sq: overwrite of existing file:./carbon_dioxide.hess
 stpr_wrt_fd_dipole: overwrite of existing file./carbon_dioxide.fd_ddipole

 Derivative Dipole

  
  
 X vector of derivative dipole (au) [debye/angstrom]
 d_dipole_x/<atom=   1,x> =    -0.2622     [   -1.2594]
 d_dipole_x/<atom=   1,y> =     0.0000     [    0.0000]
 d_dipole_x/<atom=   1,z> =    -0.0000     [   -0.0000]
 d_dipole_x/<atom=   2,x> =     0.5244     [    2.5187]
 d_dipole_x/<atom=   2,y> =     0.0000     [    0.0000]
 d_dipole_x/<atom=   2,z> =    -0.0000     [   -0.0000]
 d_dipole_x/<atom=   3,x> =    -0.2622     [   -1.2594]
 d_dipole_x/<atom=   3,y> =    -0.0000     [   -0.0000]
 d_dipole_x/<atom=   3,z> =     0.0000     [    0.0000]
  
 Y vector of derivative dipole (au) [debye/angstrom]
 d_dipole_y/<atom=   1,x> =     0.0000     [    0.0000]
 d_dipole_y/<atom=   1,y> =    -0.2622     [   -1.2594]
 d_dipole_y/<atom=   1,z> =    -0.0000     [   -0.0000]
 d_dipole_y/<atom=   2,x> =     0.0000     [    0.0000]
 d_dipole_y/<atom=   2,y> =     0.5244     [    2.5187]
 d_dipole_y/<atom=   2,z> =    -0.0000     [   -0.0000]
 d_dipole_y/<atom=   3,x> =    -0.0000     [   -0.0000]
 d_dipole_y/<atom=   3,y> =    -0.2622     [   -1.2594]
 d_dipole_y/<atom=   3,z> =     0.0000     [    0.0000]
  
 Z vector of derivative dipole (au) [debye/angstrom]
 d_dipole_z/<atom=   1,x> =    -0.0000     [   -0.0000]
 d_dipole_z/<atom=   1,y> =    -0.0000     [   -0.0000]
 d_dipole_z/<atom=   1,z> =    -1.1052     [   -5.3085]
 d_dipole_z/<atom=   2,x> =     0.0000     [    0.0000]
 d_dipole_z/<atom=   2,y> =     0.0000     [    0.0000]
 d_dipole_z/<atom=   2,z> =     2.2104     [   10.6169]
 d_dipole_z/<atom=   3,x> =    -0.0000     [   -0.0000]
 d_dipole_z/<atom=   3,y> =     0.0000     [    0.0000]
 d_dipole_z/<atom=   3,z> =    -1.1052     [   -5.3085]
  
  
 HESSIAN: the Hessian is done
 
 
  Vibrational analysis via the FX method 
 
  See chapter 2 in "Molecular Vibrations" by Wilson, Decius and Cross
 
  Vib: Default input used 
 
  Nuclear Hessian passed symmetry test 
 


 ---------------------------- Atom information ----------------------------
     atom    #        X              Y              Z            mass
 --------------------------------------------------------------------------
    O        1  0.0000000D+00  0.0000000D+00 -2.2093937D+00  1.5994910D+01
    C        2  0.0000000D+00  0.0000000D+00  0.0000000D+00  1.2000000D+01
    O        3  0.0000000D+00  0.0000000D+00  2.2093937D+00  1.5994910D+01
 --------------------------------------------------------------------------




          ----------------------------------------------------
          MASS-WEIGHTED NUCLEAR HESSIAN (Hartree/Bohr/Bohr/Kamu)
          ----------------------------------------------------


               1            2            3            4            5            6            7            8            9
   ----- ----- ----- ----- -----
    1    2.11447D+00
    2   -4.94247D-07  2.11447D+00
    3   -4.18666D-07 -4.18493D-07  6.62500D+01
    4   -4.88233D+00  1.49164D-09  4.85900D-10  1.12735D+01
    5    1.49165D-09 -4.88233D+00  1.71149D-09 -5.91195D-09  1.12735D+01
    6   -9.19761D-09 -9.52203D-09 -7.07348D+01  2.21904D-08  2.21888D-08  1.63329D+02
    7    2.11442D+00 -6.58486D-10 -2.27426D-09 -4.88233D+00  5.95574D-11  1.59450D-08  2.11447D+00
    8   -6.58481D-10  2.11442D+00 -2.58460D-09  5.95644D-11 -4.88233D+00  1.70316D-08 -8.13935D-08  2.11447D+00
    9    5.95087D-09  6.13601D-09 -4.98208D+00  6.62840D-09  5.37426D-09 -7.07348D+01  2.69868D-08  2.63508D-08  6.62500D+01



          -------------------------------------------------
          NORMAL MODE EIGENVECTORS IN CARTESIAN COORDINATES
          -------------------------------------------------
                 (Frequencies expressed in cm-1)

                    1           2           3           4           5           6
 
 Frequency          0.25        0.27        0.35        1.17        1.18      640.03
 
           1    -0.10699    -0.10792    -0.00792    -0.12380     0.12453    -0.06184
           2    -0.10851     0.10639    -0.00789    -0.12377    -0.12457    -0.06858
           3    -0.01203    -0.00011     0.15029     0.00088     0.00000     0.00000
           4    -0.10551    -0.10736    -0.00853     0.00122    -0.00047     0.16487
           5    -0.10702     0.10586    -0.00850     0.00122     0.00047     0.18281
           6    -0.01203    -0.00011     0.15029     0.00088     0.00000     0.00000
           7    -0.10402    -0.10680    -0.00914     0.12625    -0.12547    -0.06184
           8    -0.10553     0.10532    -0.00911     0.12621     0.12550    -0.06858
           9    -0.01203    -0.00011     0.15029     0.00088     0.00000     0.00000

                    7           8           9
 
 Frequency        640.03     1371.96     2436.16
 
           1    -0.06858     0.00000    -0.00000
           2     0.06184     0.00000    -0.00000
           3     0.00000    -0.17680     0.09234
           4     0.18281    -0.00000    -0.00000
           5    -0.16487    -0.00000    -0.00000
           6     0.00000    -0.00000    -0.24617
           7    -0.06858     0.00000    -0.00000
           8     0.06184     0.00000    -0.00000
           9     0.00000     0.17680     0.09234



 ----------------------------------------------------------------------------
 Normal Eigenvalue ||         Derivative Dipole Moments (debye/angs)
  Mode   [cm**-1]  ||      [d/dqX]             [d/dqY]           [d/dqZ]
 ------ ---------- || ------------------ ------------------ -----------------
    1        0.247 ||      -0.000              -0.000            -0.000
    2        0.270 ||       0.000              -0.000             0.000
    3        0.351 ||       0.000               0.000            -0.000
    4        1.172 ||       0.000               0.000             0.000
    5        1.178 ||      -0.000               0.000             0.000
    6      640.034 ||       0.571               0.633             0.000
    7      640.034 ||       0.633              -0.571             0.000
    8     1371.962 ||      -0.000              -0.000            -0.000
    9     2436.162 ||       0.000               0.000            -3.594
 ----------------------------------------------------------------------------



  
  
 ----------------------------------------------------------------------------
 Normal Eigenvalue ||                 Infra Red Intensities
  Mode   [cm**-1]  || [atomic units] [(debye/angs)**2] [(KM/mol)] [arbitrary]
 ------ ---------- || -------------- ----------------- ---------- -----------
    1        0.247 ||    0.000000           0.000         0.000       0.000
    2        0.270 ||    0.000000           0.000         0.000       0.000
    3        0.351 ||    0.000000           0.000         0.000       0.000
    4        1.172 ||    0.000000           0.000         0.000       0.000
    5        1.178 ||    0.000000           0.000         0.000       0.000
    6      640.034 ||    0.031510           0.727        30.718       4.553
    7      640.034 ||    0.031510           0.727        30.718       4.553
    8     1371.962 ||    0.000000           0.000         0.000       0.000
    9     2436.162 ||    0.559879          12.917       545.798      80.894
 ----------------------------------------------------------------------------



 
 
        Vibrational analysis via the FX method 
  --- with translations and rotations projected out ---
  --- via the Eckart algorithm                      ---
 Dependent rotation vector no.                     3
  found in ECKART; assuming linear geometry
 Projected Nuclear Hessian trans-rot subspace norm:2.8001D-32
                         (should be close to zero!) 

          --------------------------------------------------------
          MASS-WEIGHTED PROJECTED HESSIAN (Hartree/Bohr/Bohr/Kamu)
          --------------------------------------------------------


               1            2            3            4            5            6            7            8            9
   ----- ----- ----- ----- -----
    1    2.11445D+00
    2   -1.66687D-08  2.11445D+00
    3   -4.65315D-08 -4.69151D-08  6.62500D+01
    4   -4.88233D+00  3.84886D-08  1.07443D-07  1.12735D+01
    5    3.84886D-08 -4.88233D+00  1.08329D-07 -8.88715D-08  1.12735D+01
    6    2.21554D-08  2.22749D-08 -7.07348D+01 -5.11575D-08 -5.14335D-08  1.63329D+02
    7    2.11445D+00 -1.66687D-08 -4.65315D-08 -4.88233D+00  3.84886D-08  2.21554D-08  2.11445D+00
    8   -1.66687D-08  2.11445D+00 -4.69151D-08  3.84886D-08 -4.88233D+00  2.22749D-08 -1.66687D-08  2.11445D+00
    9    2.73413D-08  2.76214D-08 -4.98208D+00 -6.31321D-08 -6.37787D-08 -7.07348D+01  2.73413D-08  2.76214D-08  6.62500D+01

 center of mass
 --------------
 x =   0.00000000 y =   0.00000000 z =   0.00000000

 moments of inertia (a.u.)
 ------------------
         156.155763348853           0.000000000000           0.000000000000
           0.000000000000         156.155763348853           0.000000000000
           0.000000000000           0.000000000000           0.000000000000

 Rotational Constants
 --------------------
 A=   0.000000 cm-1  (  0.000000 K)
 B=   0.385514 cm-1  (  0.554656 K)
 C=   0.385514 cm-1  (  0.554656 K)


 Temperature                      =   298.15K
 frequency scaling parameter      =   1.0000


 Linear Molecule                   

 Zero-Point correction to Energy  =    7.270 kcal/mol  (  0.011586 au)
 Thermal correction to Energy     =    8.931 kcal/mol  (  0.014232 au)
 Thermal correction to Enthalpy   =    9.523 kcal/mol  (  0.015176 au)

 Total Entropy                    =   51.142 cal/mol-K
   - Translational                =   37.253 cal/mol-K (mol. weight =  43.9898)
   - Rotational                   =   13.098 cal/mol-K (symmetry #  =        2)
   - Vibrational                  =    0.791 cal/mol-K

 Cv (constant volume heat capacity) =    6.980 cal/mol-K
   - Translational                  =    2.979 cal/mol-K
   - Rotational                     =    1.986 cal/mol-K
   - Vibrational                    =    2.014 cal/mol-K



          -------------------------------------------------
          NORMAL MODE EIGENVECTORS IN CARTESIAN COORDINATES
          -------------------------------------------------
             (Projected Frequencies expressed in cm-1)

                    1           2           3           4           5           6
 
 P.Frequency       -0.00       -0.00        0.00        0.00        0.00      640.03
 
           1     0.00000     0.00000     0.00000     0.23236     0.00000    -0.06330
           2     0.00000     0.00000     0.00000     0.00000     0.23236    -0.06724
           3     0.15077     0.00000     0.00000     0.00000     0.00000    -0.00000
           4     0.00000     0.11472     0.00000     0.09783     0.00000     0.16874
           5     0.00000     0.00000     0.11472     0.00000     0.09783     0.17924
           6     0.15077     0.00000     0.00000     0.00000     0.00000     0.00000
           7     0.00000     0.22945     0.00000    -0.03670     0.00000    -0.06330
           8     0.00000     0.00000     0.22945     0.00000    -0.03670    -0.06724
           9     0.15077     0.00000     0.00000     0.00000     0.00000     0.00000

                    7           8           9
 
 P.Frequency      640.03     1371.96     2436.16
 
           1    -0.06724     0.00000    -0.00000
           2     0.06330     0.00000    -0.00000
           3    -0.00000    -0.17680     0.09234
           4     0.17924    -0.00000     0.00000
           5    -0.16874    -0.00000     0.00000
           6     0.00000     0.00000    -0.24617
           7    -0.06724     0.00000    -0.00000
           8     0.06330     0.00000    -0.00000
           9     0.00000     0.17680     0.09234



 ----------------------------------------------------------------------------
 Normal Eigenvalue ||    Projected Derivative Dipole Moments (debye/angs)
  Mode   [cm**-1]  ||      [d/dqX]             [d/dqY]           [d/dqZ]
 ------ ---------- || ------------------ ------------------ -----------------
    1       -0.000 ||       0.000               0.000            -0.000
    2       -0.000 ||       0.000              -0.000            -0.000
    3        0.000 ||      -0.000               0.000             0.000
    4        0.000 ||       0.000               0.000            -0.000
    5        0.000 ||       0.000               0.000            -0.000
    6      640.034 ||       0.584               0.621             0.000
    7      640.034 ||       0.621              -0.584             0.000
    8     1371.962 ||      -0.000              -0.000            -0.000
    9     2436.162 ||       0.000               0.000            -3.594
 ----------------------------------------------------------------------------



  
  
 ----------------------------------------------------------------------------
 Normal Eigenvalue ||           Projected Infra Red Intensities
  Mode   [cm**-1]  || [atomic units] [(debye/angs)**2] [(KM/mol)] [arbitrary]
 ------ ---------- || -------------- ----------------- ---------- -----------
    1       -0.000 ||    0.000000           0.000         0.000       0.000
    2       -0.000 ||    0.000000           0.000         0.000       0.000
    3        0.000 ||    0.000000           0.000         0.000       0.000
    4        0.000 ||    0.000000           0.000         0.000       0.000
    5        0.000 ||    0.000000           0.000         0.000       0.000
    6      640.034 ||    0.031510           0.727        30.718       4.553
    7      640.034 ||    0.031510           0.727        30.718       4.553
    8     1371.962 ||    0.000000           0.000         0.000       0.000
    9     2436.162 ||    0.559879          12.917       545.798      80.894
 ----------------------------------------------------------------------------



 vib:animation  F

 Task  times  cpu:       18.6s     wall:       19.6s
 
 
                                NWChem Input Module
                                -------------------
 
 
 Summary of allocated global arrays
-----------------------------------
  No active global arrays


MA_summarize_allocated_blocks: starting scan ...
MA_summarize_allocated_blocks: scan completed: 0 heap blocks, 0 stack blocks
MA usage statistics:

	allocation statistics:
					      heap	     stack
					      ----	     -----
	current number of blocks	         0	         0
	maximum number of blocks	        26	        57
	current total bytes		         0	         0
	maximum total bytes		   2573288	  89019736
	maximum total K-bytes		      2574	     89020
	maximum total M-bytes		         3	        90
 
 
                                     CITATION
                                     --------
                Please cite the following reference when publishing
                           results obtained with NWChem:
 
          E. Apra, E. J. Bylaska, W. A. de Jong, N. Govind, K. Kowalski,
       T. P. Straatsma, M. Valiev, H. J. J. van Dam, Y. Alexeev, J. Anchell,
       V. Anisimov, F. W. Aquino, R. Atta-Fynn, J. Autschbach, N. P. Bauman,
     J. C. Becca, D. E. Bernholdt, K. Bhaskaran-Nair, S. Bogatko, P. Borowski,
         J. Boschen, J. Brabec, A. Bruner, E. Cauet, Y. Chen, G. N. Chuev,
      C. J. Cramer, J. Daily, M. J. O. Deegan, T. H. Dunning Jr., M. Dupuis,
   K. G. Dyall, G. I. Fann, S. A. Fischer, A. Fonari, H. Fruchtl, L. Gagliardi,
      J. Garza, N. Gawande, S. Ghosh, K. Glaesemann, A. W. Gotz, J. Hammond,
       V. Helms, E. D. Hermes, K. Hirao, S. Hirata, M. Jacquelin, L. Jensen,
   B. G. Johnson, H. Jonsson, R. A. Kendall, M. Klemm, R. Kobayashi, V. Konkov,
      S. Krishnamoorthy, M. Krishnan, Z. Lin, R. D. Lins, R. J. Littlefield,
      A. J. Logsdail, K. Lopata, W. Ma, A. V. Marenich, J. Martin del Campo,
   D. Mejia-Rodriguez, J. E. Moore, J. M. Mullin, T. Nakajima, D. R. Nascimento,
    J. A. Nichols, P. J. Nichols, J. Nieplocha, A. Otero-de-la-Roza, B. Palmer,
    A. Panyala, T. Pirojsirikul, B. Peng, R. Peverati, J. Pittner, L. Pollack,
   R. M. Richard, P. Sadayappan, G. C. Schatz, W. A. Shelton, D. W. Silverstein,
   D. M. A. Smith, T. A. Soares, D. Song, M. Swart, H. L. Taylor, G. S. Thomas,
            V. Tipparaju, D. G. Truhlar, K. Tsemekhman, T. Van Voorhis,
      A. Vazquez-Mayagoitia, P. Verma, O. Villa, A. Vishnu, K. D. Vogiatzis,
        D. Wang, J. H. Weare, M. J. Williamson, T. L. Windus, K. Wolinski,
        A. T. Wong, Q. Wu, C. Yang, Q. Yu, M. Zacharias, Z. Zhang, Y. Zhao,
                                and R. J. Harrison
                        "NWChem: Past, present, and future
                         J. Chem. Phys. 152, 184102 (2020)
                               doi:10.1063/5.0004997
 
                                      AUTHORS
                                      -------
  E. Apra, E. J. Bylaska, N. Govind, K. Kowalski, M. Valiev, D. Mejia-Rodriguez,
       A. Kunitsa, N. P. Bauman, A. Panyala, W. A. de Jong, T. P. Straatsma,
   H. J. J. van Dam, D. Wang, T. L. Windus, J. Hammond, J. Autschbach, A. Woods,
    K. Bhaskaran-Nair, J. Brabec, K. Lopata, S. A. Fischer, S. Krishnamoorthy,
     M. Jacquelin, W. Ma, M. Klemm, O. Villa, Y. Chen, V. Anisimov, F. Aquino,
     S. Hirata, M. T. Hackler, E. Hermes, L. Jensen, J. E. Moore, J. C. Becca,
      V. Konjkov, T. Risthaus, M. Malagoli, A. Marenich, A. Otero-de-la-Roza,
        J. Mullin, P. Nichols, R. Peverati, J. Pittner, Y. Zhao, P.-D. Fan,
        A. Fonari, M. J. Williamson, R. J. Harrison, J. R. Rehr, M. Dupuis,
     D. Silverstein, D. M. A. Smith, J. Nieplocha, V. Tipparaju, M. Krishnan,
     B. E. Van Kuiken, A. Vazquez-Mayagoitia, M. Swart, Q. Wu, T. Van Voorhis,
     A. A. Auer, M. Nooijen, L. D. Crosby, E. Brown, G. Cisneros, G. I. Fann,
   H. Fruchtl, J. Garza, K. Hirao, R. A. Kendall, J. A. Nichols, K. Tsemekhman,
    K. Wolinski, J. Anchell, D. E. Bernholdt, P. Borowski, T. Clark, D. Clerc,
   H. Dachsel, M. J. O. Deegan, K. Dyall, D. Elwood, E. Glendening, M. Gutowski,
   A. C. Hess, J. Jaffe, B. G. Johnson, J. Ju, R. Kobayashi, R. Kutteh, Z. Lin,
   R. Littlefield, X. Long, B. Meng, T. Nakajima, S. Niu, L. Pollack, M. Rosing,
   K. Glaesemann, G. Sandrone, M. Stave, H. Taylor, G. Thomas, J. H. van Lenthe,
                               A. T. Wong, Z. Zhang.

 Total times  cpu:       29.1s     wall:       31.2s
