 argument  1 = ethanol.nw
 


============================== echo of input deck ==============================
start ethanol
title "ethanol opt+freq (B3LYP/6-31g*)"
echo

geometry units angstrom
  C  0.000000  0.000000  0.000000
  C  1.530000  0.000000  0.000000
  O  2.860000  0.000000  0.000000
  H -0.540000  0.940000  0.000000
  H -0.540000 -0.470000  0.810000
  H -0.540000 -0.470000 -0.810000
  H  1.940000 -0.470000  0.810000
  H  1.940000 -0.470000 -0.810000
  H  3.370000  0.000000  0.810000
end

charge 0

basis
  * library 6-31g*
end

dft
  xc b3lyp
  grid xfine
end

driver
  maxiter 200
end

task dft optimize
task dft freq
================================================================================


                                         
                                         
 
 
             Northwest Computational Chemistry Package (NWChem) 7.2.2
             --------------------------------------------------------
 
 
                    Environmental Molecular Sciences Laboratory
                       Pacific Northwest National Laboratory
                                Richland, WA 99352
 
                              Copyright (c) 1994-2022
                       Pacific Northwest National Laboratory
                            Battelle Memorial Institute
 
             NWChem is an open-source computational chemistry package
                        distributed under the terms of the
                      Educational Community License (ECL) 2.0
             A copy of the license is included with this distribution
                              in the LICENSE.TXT file
 
                                  ACKNOWLEDGMENT
                                  --------------

            This software and its documentation were developed at the
            EMSL at Pacific Northwest National Laboratory, a multiprogram
            national laboratory, operated for the U.S. Department of Energy
            by Battelle under Contract Number DE-AC05-76RL01830. Support
            for this work was provided by the Department of Energy Office
            of Biological and Environmental Research, Office of Basic
            Energy Sciences, and the Office of Advanced Scientific Computing.


           Job information
           ---------------

    hostname        = charliebox
    program         = /apps/nwchem/bin/nwchem
    date            = Sun Oct 19 14:44:57 2025

    compiled        = Tue_Apr_23_01:04:59_2024
    source          = /apps/nwchem-7.2.2-release
    nwchem branch   = 7.2.2
    nwchem revision = N/A
    ga revision     = 5.8.0
    use scalapack   = T
    input           = ethanol.nw
    prefix          = ethanol.
    data base       = ./ethanol.db
    status          = startup
    nproc           =       19
    time left       =     -1s



           Memory information
           ------------------

    heap     =   26214394 doubles =    200.0 Mbytes
    stack    =   26214399 doubles =    200.0 Mbytes
    global   =   52428800 doubles =    400.0 Mbytes (distinct from heap & stack)
    total    =  104857593 doubles =    800.0 Mbytes
    verify   = yes
    hardfail = no 


           Directory information
           ---------------------
 
  0 permanent = .
  0 scratch   = .
 
 
 
 
                                NWChem Input Module
                                -------------------
 
 
                          ethanol opt+freq (B3LYP/6-31g*)
                          -------------------------------

 Scaling coordinates for geometry "geometry" by  1.889725989
 (inverse scale =  0.529177249)

 C1  symmetry detected

          ------
          auto-z
          ------
  no constraints, skipping   0.000000000000000E+000
  no constraints, skipping   0.000000000000000E+000
 
 
                             Geometry "geometry" -> ""
                             -------------------------
 
 Output coordinates in angstroms (scale by  1.889725989 to convert to a.u.)
 
  No.       Tag          Charge          X              Y              Z
 ---- ---------------- ---------- -------------- -------------- --------------
    1 C                    6.0000     0.00074886    -1.45013061     0.02798341
    2 C                    6.0000    -0.03226173     0.07948573     0.03715573
    3 O                    8.0000    -0.06095720     1.40915223     0.04512905
    4 H                    1.0000     0.02838203    -1.99528608     0.96459535
    5 H                    1.0000     0.81410280    -1.96979381    -0.45884872
    6 H                    1.0000    -0.80528586    -2.00490572    -0.43150827
    7 H                    1.0000     0.76059545     0.50958432    -0.44398117
    8 H                    1.0000    -0.85879322     0.47447241    -0.41664071
    9 H                    1.0000     0.73773360     1.93658030     0.03451627
 
      Atomic Mass 
      ----------- 
 
      C                 12.000000
      O                 15.994910
      H                  1.007825
 

 Effective nuclear repulsion energy (a.u.)      82.9768732920

            Nuclear Dipole moment (a.u.) 
            ----------------------------
        X                 Y               Z
 ---------------- ---------------- ----------------
     0.0000000000     0.0000000000    -0.0000000000
 


                                Z-matrix (autoz)
                                -------- 

 Units are Angstrom for bonds and degrees for angles
 
      Type          Name      I     J     K     L     M      Value
      ----------- --------  ----- ----- ----- ----- ----- ----------
    1 Stretch                  1     2                       1.53000
    2 Stretch                  1     4                       1.08407
    3 Stretch                  1     5                       1.08102
    4 Stretch                  1     6                       1.08102
    5 Stretch                  2     3                       1.33000
    6 Stretch                  2     7                       1.02230
    7 Stretch                  2     8                       1.02230
    8 Stretch                  3     9                       0.95718
    9 Bend                     1     2     7               113.64421
   10 Bend                     1     2     8               113.64421
   11 Bend                     2     1     4               119.87599
   12 Bend                     2     1     5               119.96885
   13 Bend                     2     1     6               119.96885
   14 Bend                     2     3     9               122.19573
   15 Bend                     3     2     7                66.35579
   16 Bend                     3     2     8                66.35579
   17 Bend                     4     1     5                97.36377
   18 Bend                     4     1     6                97.36377
   19 Bend                     5     1     6                97.05847
   20 Bend                     7     2     8               104.80758
   21 Torsion                  4     1     3     9          90.00000
   22 Torsion                  1     4     2     3         180.00000
   23 Torsion                  4     1     2     7         120.12432
   24 Torsion                  4     1     2     8        -120.12432
   25 Torsion                  5     1     3     9         -30.12432
   26 Torsion                  1     5     2     3         180.00000
   27 Torsion                  5     1     2     7           0.00000
   28 Torsion                  5     1     2     8         119.75136
   29 Torsion                  6     1     3     9        -149.87568
   30 Torsion                  1     6     2     3        -180.00000
   31 Torsion                  6     1     2     7        -119.75136
   32 Torsion                  6     1     2     8           0.00000
   33 Torsion                  7     2     3     9         -30.12432
   34 Torsion                  8     2     3     9        -149.87568
   35 Torsion                  1     2     9     3         180.00000
 
 
            XYZ format geometry
            -------------------
     9
 geometry
 C                     0.00074886    -1.45013061     0.02798341
 C                    -0.03226173     0.07948573     0.03715573
 O                    -0.06095720     1.40915223     0.04512905
 H                     0.02838203    -1.99528608     0.96459535
 H                     0.81410280    -1.96979381    -0.45884872
 H                    -0.80528586    -2.00490572    -0.43150827
 H                     0.76059545     0.50958432    -0.44398117
 H                    -0.85879322     0.47447241    -0.41664071
 H                     0.73773360     1.93658030     0.03451627
 
 ==============================================================================
                                internuclear distances
 ------------------------------------------------------------------------------
       center one      |      center two      | atomic units |  angstroms
 ------------------------------------------------------------------------------
    2 C                |   1 C                |     2.89128  |     1.53000
    3 O                |   2 C                |     2.51334  |     1.33000
    4 H                |   1 C                |     2.04859  |     1.08407
    5 H                |   1 C                |     2.04283  |     1.08102
    6 H                |   1 C                |     2.04283  |     1.08102
    7 H                |   2 C                |     1.93187  |     1.02230
    8 H                |   2 C                |     1.93187  |     1.02230
    9 H                |   3 O                |     1.80881  |     0.95718
 ------------------------------------------------------------------------------
                         number of included internuclear distances:          8
 ==============================================================================



 ==============================================================================
                                 internuclear angles
 ------------------------------------------------------------------------------
        center 1       |       center 2       |       center 3       |  degrees
 ------------------------------------------------------------------------------
    2 C                |   1 C                |   4 H                |   119.88
    2 C                |   1 C                |   5 H                |   119.97
    2 C                |   1 C                |   6 H                |   119.97
    4 H                |   1 C                |   5 H                |    97.36
    4 H                |   1 C                |   6 H                |    97.36
    5 H                |   1 C                |   6 H                |    97.06
    1 C                |   2 C                |   3 O                |   180.00
    1 C                |   2 C                |   7 H                |   113.64
    1 C                |   2 C                |   8 H                |   113.64
    3 O                |   2 C                |   7 H                |    66.36
    3 O                |   2 C                |   8 H                |    66.36
    7 H                |   2 C                |   8 H                |   104.81
    2 C                |   3 O                |   9 H                |   122.20
 ------------------------------------------------------------------------------
                            number of included internuclear angles:         13
 ==============================================================================



  library name resolved from: environment
  library file name is: </apps/nwchem/data/libraries/>
  


 Summary of "ao basis" -> "" (cartesian)
 ------------------------------------------------------------------------------
       Tag                 Description            Shells   Functions and Types
 ---------------- ------------------------------  ------  ---------------------
 *                           6-31g*                   on all atoms 


 
 
                           NWChem Geometry Optimization
                           ----------------------------
 
 
 
 
                          ethanol opt+freq (B3LYP/6-31g*)
 
 
  no constraints, skipping   0.000000000000000E+000
 maximum gradient threshold         (gmax) =   0.000450
 rms gradient threshold             (grms) =   0.000300
 maximum cartesian step threshold   (xmax) =   0.001800
 rms cartesian step threshold       (xrms) =   0.001200
 fixed trust radius                (trust) =   0.300000
 maximum step size to saddle      (sadstp) =   0.100000
 energy precision                  (eprec) =   5.0D-06
 maximum number of steps          (nptopt) =  200
 initial hessian option           (inhess) =    0
 line search option               (linopt) =    1
 hessian update option            (modupd) =    1
 saddle point option              (modsad) =    0
 initial eigen-mode to follow     (moddir) =    0
 initial variable to follow       (vardir) =    0
 follow first negative mode     (firstneg) =    T
 apply conjugacy                    (opcg) =    F
 source of zmatrix                         =   autoz   


          -------------------
          Energy Minimization
          -------------------

 
 Names of Z-matrix variables 
    1              2              3              4              5         
    6              7              8              9             10         
   11             12             13             14             15         
   16             17             18             19             20         
   21             22             23             24             25         
   26             27             28             29             30         
   31             32             33             34             35         
 
 Variables with the same non-blank name are constrained to be equal
 
 
 Using old Hessian from previous optimization

          --------
          Step   0
          --------
 
 
                         Geometry "geometry" -> "geometry"
                         ---------------------------------
 
 Output coordinates in angstroms (scale by  1.889725989 to convert to a.u.)
 
  No.       Tag          Charge          X              Y              Z
 ---- ---------------- ---------- -------------- -------------- --------------
    1 C                    6.0000     0.00074886    -1.45013061     0.02798341
    2 C                    6.0000    -0.03226173     0.07948573     0.03715573
    3 O                    8.0000    -0.06095720     1.40915223     0.04512905
    4 H                    1.0000     0.02838203    -1.99528608     0.96459535
    5 H                    1.0000     0.81410280    -1.96979381    -0.45884872
    6 H                    1.0000    -0.80528586    -2.00490572    -0.43150827
    7 H                    1.0000     0.76059545     0.50958432    -0.44398117
    8 H                    1.0000    -0.85879322     0.47447241    -0.41664071
    9 H                    1.0000     0.73773360     1.93658030     0.03451627
 
      Atomic Mass 
      ----------- 
 
      C                 12.000000
      O                 15.994910
      H                  1.007825
 

 Effective nuclear repulsion energy (a.u.)      82.9768732920

            Nuclear Dipole moment (a.u.) 
            ----------------------------
        X                 Y               Z
 ---------------- ---------------- ----------------
     0.0000000000     0.0000000000    -0.0000000000
 
 
                                 NWChem DFT Module
                                 -----------------
 
 
                          ethanol opt+freq (B3LYP/6-31g*)
 
 
                      Basis "ao basis" -> "ao basis" (cartesian)
                      -----
  C (Carbon)
  ----------
            Exponent  Coefficients 
       -------------- ---------------------------------------------------------
  1 S  3.04752490E+03  0.001835
  1 S  4.57369510E+02  0.014037
  1 S  1.03948690E+02  0.068843
  1 S  2.92101550E+01  0.232184
  1 S  9.28666300E+00  0.467941
  1 S  3.16392700E+00  0.362312
 
  2 S  7.86827240E+00 -0.119332
  2 S  1.88128850E+00 -0.160854
  2 S  5.44249300E-01  1.143456
 
  3 P  7.86827240E+00  0.068999
  3 P  1.88128850E+00  0.316424
  3 P  5.44249300E-01  0.744308
 
  4 S  1.68714400E-01  1.000000
 
  5 P  1.68714400E-01  1.000000
 
  6 D  8.00000000E-01  1.000000
 
  O (Oxygen)
  ----------
            Exponent  Coefficients 
       -------------- ---------------------------------------------------------
  1 S  5.48467170E+03  0.001831
  1 S  8.25234950E+02  0.013950
  1 S  1.88046960E+02  0.068445
  1 S  5.29645000E+01  0.232714
  1 S  1.68975700E+01  0.470193
  1 S  5.79963530E+00  0.358521
 
  2 S  1.55396160E+01 -0.110778
  2 S  3.59993360E+00 -0.148026
  2 S  1.01376180E+00  1.130767
 
  3 P  1.55396160E+01  0.070874
  3 P  3.59993360E+00  0.339753
  3 P  1.01376180E+00  0.727159
 
  4 S  2.70005800E-01  1.000000
 
  5 P  2.70005800E-01  1.000000
 
  6 D  8.00000000E-01  1.000000
 
  H (Hydrogen)
  ------------
            Exponent  Coefficients 
       -------------- ---------------------------------------------------------
  1 S  1.87311370E+01  0.033495
  1 S  2.82539370E+00  0.234727
  1 S  6.40121700E-01  0.813757
 
  2 S  1.61277800E-01  1.000000
 


 Summary of "ao basis" -> "ao basis" (cartesian)
 ------------------------------------------------------------------------------
       Tag                 Description            Shells   Functions and Types
 ---------------- ------------------------------  ------  ---------------------
 C                           6-31g*                  6       15   3s2p1d
 O                           6-31g*                  6       15   3s2p1d
 H                           6-31g*                  2        2   2s




 Summary of "ao basis" -> "ao basis" (cartesian)
 ------------------------------------------------------------------------------
       Tag                 Description            Shells   Functions and Types
 ---------------- ------------------------------  ------  ---------------------
 C                           6-31g*                  6       15   3s2p1d
 O                           6-31g*                  6       15   3s2p1d
 H                           6-31g*                  2        2   2s


  Caching 1-el integrals 
 
            General Information
            -------------------
          SCF calculation type: DFT
          Wavefunction type:  closed shell.
          No. of atoms     :     9
          No. of electrons :    26
           Alpha electrons :    13
            Beta electrons :    13
          Charge           :     0
          Spin multiplicity:     1
          Use of symmetry is: off; symmetry adaption is: off
          Maximum number of iterations:  50
          AO basis - number of functions:    57
                     number of shells:    30
          Convergence on energy requested:  1.00D-06
          Convergence on density requested:  1.00D-05
          Convergence on gradient requested:  5.00D-04
 
              XC Information
              --------------
                         B3LYP Method XC Potential
                     Hartree-Fock (Exact) Exchange  0.200          
                        Slater Exchange Functional  0.800 local    
                    Becke 1988 Exchange Functional  0.720 non-local
              Lee-Yang-Parr Correlation Functional  0.810          
                  VWN I RPA Correlation Functional  0.190 local    
 
             Grid Information
             ----------------
          Grid used for XC integration:  xfine     
          Radial quadrature: Mura-Knowles        
          Angular quadrature: Lebedev. 
          Tag              B.-S. Rad. Rad. Pts. Rad. Cut. Ang. Pts.
          ---              ---------- --------- --------- ---------
          C                   0.70      100          10.0      1454
          O                   0.60      100          10.0      1454
          H                   0.35      100          11.0      1202
          Grid pruning is: on 
          Number of quadrature shells:   900
          Spatial weights used:  Erf1
 
          Convergence Information
          -----------------------
          Convergence aids based upon iterative change in 
          total energy or number of iterations. 
          Levelshifting, if invoked, occurs when the 
          HOMO/LUMO gap drops below (HL_TOL):  1.00D-02
          DIIS, if invoked, will attempt to extrapolate 
          using up to (NFOCK): 10 stored Fock matrices.

                    Damping( 0%)  Levelshifting(0.5)       DIIS
                  --------------- ------------------- ---------------
          dE  on:    start            ASAP                start   
          dE off:    2 iters         50 iters            50 iters 

 
      Screening Tolerance Information
      -------------------------------
          Density screening/tol_rho:  1.00D-10
          AO Gaussian exp screening on grid/accAOfunc:  14
          CD Gaussian exp screening on grid/accCDfunc:  20
          XC Gaussian exp screening on grid/accXCfunc:  20
          Schwarz screening/accCoul:  1.00D-08

 
      Superposition of Atomic Density Guess
      -------------------------------------
 
 Sum of atomic energies:        -153.06425576
 
      Non-variational initial energy
      ------------------------------

 Total energy =    -155.381874
 1-e energy   =    -370.547517
 2-e energy   =     132.188770
 HOMO         =      -0.187135
 LUMO         =      -0.025217
 
  WARNING: movecs_in_org=atomic not equal to movecs_in=./ethanol.movecs
   Time after variat. SCF:      3.8
   Time prior to 1st pass:      3.8

 Integral file          = ./ethanol.aoints.00
 Record size in doubles =  65536        No. of integs per rec  =  43688
 Max. records in memory =      5        Max. records in file   = 224879
 No. of bits per label  =      8        No. of bits per value  =     64


 #quartets = 1.014D+05 #integrals = 1.311D+06 #direct =  0.0% #cached =100.0%


File balance: exchanges=     0  moved=     0  time=   0.0


 Grid_pts file          = ./ethanol.gridpts.00
 Record size in doubles =  12289        No. of grid_pts per rec  =   3070
 Max. records in memory =     26        Max. recs in file   =   1199253


           Memory utilization after 1st SCF pass: 
           Heap Space remaining (MW):       25.56            25564410
          Stack Space remaining (MW):       26.21            26213860

   convergence    iter        energy       DeltaE   RMS-Dens  Diis-err    time
 ---------------- ----- ----------------- --------- --------- ---------  ------
 d= 0,ls=0.0,diis     1   -154.6379323488 -2.38D+02  1.67D-02  4.90D-01     4.1
 d= 0,ls=0.0,diis     2   -154.6543291924 -1.64D-02  9.16D-03  3.58D-01     5.1
 d= 0,ls=0.0,diis     3   -154.6799652226 -2.56D-02  3.24D-03  7.87D-02     5.4
 d= 0,ls=0.0,diis     4   -154.6872596780 -7.29D-03  8.05D-04  1.39D-03     5.6
 d= 0,ls=0.0,diis     5   -154.6874158435 -1.56D-04  1.46D-04  1.27D-04     5.9
  Resetting Diis
 d= 0,ls=0.0,diis     6   -154.6874314252 -1.56D-05  9.62D-05  5.92D-06     6.1
 d= 0,ls=0.0,diis     7   -154.6874325105 -1.09D-06  2.59D-05  7.88D-07     6.4
 d= 0,ls=0.0,diis     8   -154.6874325414 -3.09D-08  1.63D-05  7.69D-07     6.6
 d= 0,ls=0.0,diis     9   -154.6874326358 -9.45D-08  3.69D-06  4.40D-08     6.9


         Total DFT energy =     -154.687432635837
      One electron energy =     -373.234244070070
           Coulomb energy =      157.392040191872
    Exchange-Corr. energy =      -21.822102049650
 Nuclear repulsion energy =       82.976873292011

 Numeric. integr. density =       26.000000064460

     Total iterative time =      3.1s


 
                       DFT Final Molecular Orbital Analysis
                       ------------------------------------
 
 Vector    1  Occ=2.000000D+00  E=-1.915452D+01
              MO Center= -6.1D-02,  1.4D+00,  4.5D-02, r^2= 1.5D-02
   Bfn.  Coefficient  Atom+Function         Bfn.  Coefficient  Atom+Function  
  ----- ------------  ---------------      ----- ------------  ---------------
    31      0.992560  3 O  s                 32      0.025705  3 O  s          
 
 Vector    2  Occ=2.000000D+00  E=-1.019726D+01
              MO Center= -3.2D-02,  8.0D-02,  3.7D-02, r^2= 2.8D-02
   Bfn.  Coefficient  Atom+Function         Bfn.  Coefficient  Atom+Function  
  ----- ------------  ---------------      ----- ------------  ---------------
    16      0.992679  2 C  s                 17      0.050299  2 C  s          
 
 Vector    3  Occ=2.000000D+00  E=-1.018737D+01
              MO Center=  7.5D-04, -1.4D+00,  2.8D-02, r^2= 2.8D-02
   Bfn.  Coefficient  Atom+Function         Bfn.  Coefficient  Atom+Function  
  ----- ------------  ---------------      ----- ------------  ---------------
     1      0.992855  1 C  s                  2      0.049852  1 C  s          
 
 Vector    4  Occ=2.000000D+00  E=-1.106856D+00
              MO Center=  5.4D-02,  1.1D+00, -1.5D-04, r^2= 5.9D-01
   Bfn.  Coefficient  Atom+Function         Bfn.  Coefficient  Atom+Function  
  ----- ------------  ---------------      ----- ------------  ---------------
    36      0.467910  3 O  s                 32      0.413730  3 O  s          
    31     -0.195186  3 O  s                 17      0.162815  2 C  s          
    19      0.140627  2 C  py                56      0.099998  9 H  s          
    34     -0.093211  3 O  py                23     -0.091362  2 C  py         
    16     -0.089568  2 C  s                 52      0.081359  7 H  s          
 
 Vector    5  Occ=2.000000D+00  E=-7.443382D-01
              MO Center=  7.6D-03, -4.2D-01, -1.3D-02, r^2= 2.4D+00
   Bfn.  Coefficient  Atom+Function         Bfn.  Coefficient  Atom+Function  
  ----- ------------  ---------------      ----- ------------  ---------------
     2      0.288872  1 C  s                 17      0.242755  2 C  s          
     6      0.230133  1 C  s                 21      0.191618  2 C  s          
    34     -0.165931  3 O  py                36     -0.158618  3 O  s          
     1     -0.148300  1 C  s                 32     -0.132985  3 O  s          
    16     -0.121700  2 C  s                 56     -0.118559  9 H  s          
 
 Vector    6  Occ=2.000000D+00  E=-6.781443D-01
              MO Center=  3.9D-02,  8.9D-02,  3.0D-03, r^2= 3.1D+00
   Bfn.  Coefficient  Atom+Function         Bfn.  Coefficient  Atom+Function  
  ----- ------------  ---------------      ----- ------------  ---------------
    34      0.287732  3 O  py                 6      0.241189  1 C  s          
     2      0.239513  1 C  s                 33      0.185995  3 O  px         
    56      0.179872  9 H  s                 19     -0.174036  2 C  py         
    17     -0.140895  2 C  s                 38      0.134013  3 O  py         
     1     -0.122127  1 C  s                 54     -0.118997  8 H  s          
 
 Vector    7  Occ=2.000000D+00  E=-5.496272D-01
              MO Center=  8.9D-02,  4.9D-01, -8.0D-02, r^2= 1.7D+00
   Bfn.  Coefficient  Atom+Function         Bfn.  Coefficient  Atom+Function  
  ----- ------------  ---------------      ----- ------------  ---------------
    33      0.313491  3 O  px                18      0.281979  2 C  px         
    36     -0.237323  3 O  s                 52      0.222219  7 H  s          
    37      0.186338  3 O  px                32     -0.153206  3 O  s          
    53      0.144556  7 H  s                 17      0.136755  2 C  s          
     4      0.133486  1 C  py                54     -0.103245  8 H  s          
 
 Vector    8  Occ=2.000000D+00  E=-4.724054D-01
              MO Center= -5.2D-02, -4.6D-01,  1.2D-02, r^2= 2.2D+00
   Bfn.  Coefficient  Atom+Function         Bfn.  Coefficient  Atom+Function  
  ----- ------------  ---------------      ----- ------------  ---------------
     4      0.341852  1 C  py                19     -0.322216  2 C  py         
    34      0.266354  3 O  py                21      0.188827  2 C  s          
    38      0.172451  3 O  py                 8      0.171097  1 C  py         
    17      0.146341  2 C  s                 18     -0.139092  2 C  px         
    48     -0.116918  5 H  s                 46     -0.085785  4 H  s          
 
 Vector    9  Occ=2.000000D+00  E=-4.319630D-01
              MO Center= -5.9D-02,  4.0D-01,  7.5D-02, r^2= 2.1D+00
   Bfn.  Coefficient  Atom+Function         Bfn.  Coefficient  Atom+Function  
  ----- ------------  ---------------      ----- ------------  ---------------
    35      0.407030  3 O  pz                20      0.284925  2 C  pz         
    39      0.274129  3 O  pz                 5      0.197097  1 C  pz         
    24      0.136043  2 C  pz                21      0.123938  2 C  s          
    34     -0.119977  3 O  py                54     -0.109174  8 H  s          
    46      0.088786  4 H  s                 50     -0.082872  6 H  s          
 
 Vector   10  Occ=2.000000D+00  E=-3.845809D-01
              MO Center=  2.2D-02, -1.3D+00, -1.5D-01, r^2= 2.1D+00
   Bfn.  Coefficient  Atom+Function         Bfn.  Coefficient  Atom+Function  
  ----- ------------  ---------------      ----- ------------  ---------------
     3      0.423557  1 C  px                48      0.225950  5 H  s          
    49      0.206721  5 H  s                 50     -0.205672  6 H  s          
     7      0.200219  1 C  px                51     -0.182193  6 H  s          
    33     -0.174795  3 O  px                37     -0.129517  3 O  px         
    36      0.086449  3 O  s                 34      0.080616  3 O  py         
 
 Vector   11  Occ=2.000000D+00  E=-3.723044D-01
              MO Center= -4.2D-02, -1.0D+00,  2.1D-01, r^2= 2.7D+00
   Bfn.  Coefficient  Atom+Function         Bfn.  Coefficient  Atom+Function  
  ----- ------------  ---------------      ----- ------------  ---------------
     5      0.401117  1 C  pz                35     -0.289951  3 O  pz         
    46      0.240848  4 H  s                 47      0.220102  4 H  s          
    39     -0.211774  3 O  pz                 9      0.198735  1 C  pz         
    50     -0.141476  6 H  s                 51     -0.127589  6 H  s          
    48     -0.089949  5 H  s                 49     -0.085421  5 H  s          
 
 Vector   12  Occ=2.000000D+00  E=-2.580969D-01
              MO Center= -1.2D-01,  5.8D-01, -8.2D-02, r^2= 2.1D+00
   Bfn.  Coefficient  Atom+Function         Bfn.  Coefficient  Atom+Function  
  ----- ------------  ---------------      ----- ------------  ---------------
    33     -0.383148  3 O  px                18      0.379562  2 C  px         
    37     -0.301796  3 O  px                36      0.295320  3 O  s          
    22      0.219984  2 C  px                57     -0.200020  9 H  s          
    54     -0.198759  8 H  s                 56     -0.173875  9 H  s          
    55     -0.159374  8 H  s                 49     -0.136136  5 H  s          
 
 Vector   13  Occ=2.000000D+00  E=-1.680061D-01
              MO Center=  2.8D-02,  4.9D-01, -7.2D-02, r^2= 2.0D+00
   Bfn.  Coefficient  Atom+Function         Bfn.  Coefficient  Atom+Function  
  ----- ------------  ---------------      ----- ------------  ---------------
    35      0.401423  3 O  pz                39      0.375249  3 O  pz         
    20     -0.362015  2 C  pz                36     -0.339144  3 O  s          
    53      0.250550  7 H  s                  6     -0.242767  1 C  s          
    24     -0.243034  2 C  pz                55      0.220663  8 H  s          
    34      0.215747  3 O  py                47      0.209851  4 H  s          
 
 Vector   14  Occ=0.000000D+00  E=-1.126646D-02
              MO Center=  1.9D-01,  2.8D-01,  1.1D-01, r^2= 2.9D+00
   Bfn.  Coefficient  Atom+Function         Bfn.  Coefficient  Atom+Function  
  ----- ------------  ---------------      ----- ------------  ---------------
     6      0.653318  1 C  s                 36      0.586702  3 O  s          
    24     -0.515677  2 C  pz                57     -0.492914  9 H  s          
    53     -0.470780  7 H  s                 55     -0.390935  8 H  s          
    20     -0.337071  2 C  pz                51     -0.300970  6 H  s          
    49     -0.253630  5 H  s                 37      0.220722  3 O  px         
 
 Vector   15  Occ=0.000000D+00  E= 1.046453D-01
              MO Center=  5.7D-01,  7.8D-01, -3.9D-02, r^2= 5.4D+00
   Bfn.  Coefficient  Atom+Function         Bfn.  Coefficient  Atom+Function  
  ----- ------------  ---------------      ----- ------------  ---------------
     6      1.315320  1 C  s                 57      1.268993  9 H  s          
    49     -0.602905  5 H  s                 21     -0.591797  2 C  s          
    51     -0.580906  6 H  s                 36     -0.567309  3 O  s          
    37     -0.435433  3 O  px                38     -0.435073  3 O  py         
    47     -0.431118  4 H  s                 55     -0.306331  8 H  s          
 
 Vector   16  Occ=0.000000D+00  E= 1.437870D-01
              MO Center=  4.6D-01, -1.3D+00, -2.4D-02, r^2= 4.2D+00
   Bfn.  Coefficient  Atom+Function         Bfn.  Coefficient  Atom+Function  
  ----- ------------  ---------------      ----- ------------  ---------------
     6      1.673132  1 C  s                 49     -1.340173  5 H  s          
    47     -1.141241  4 H  s                 21      1.012100  2 C  s          
     8     -0.978225  1 C  py                53     -0.825625  7 H  s          
    51     -0.448869  6 H  s                 22      0.367086  2 C  px         
     7      0.341891  1 C  px                55      0.335847  8 H  s          
 
 Vector   17  Occ=0.000000D+00  E= 1.525090D-01
              MO Center= -2.2D-01, -1.1D+00, -1.9D-01, r^2= 4.4D+00
   Bfn.  Coefficient  Atom+Function         Bfn.  Coefficient  Atom+Function  
  ----- ------------  ---------------      ----- ------------  ---------------
    51      1.409990  6 H  s                 53     -0.921184  7 H  s          
     6     -0.894279  1 C  s                  7      0.761843  1 C  px         
    47      0.694449  4 H  s                 55      0.655842  8 H  s          
    49     -0.617435  5 H  s                 57      0.520036  9 H  s          
    22      0.512499  2 C  px                 8      0.474230  1 C  py         
 
 Vector   18  Occ=0.000000D+00  E= 1.766524D-01
              MO Center= -1.6D-01, -5.8D-01,  9.1D-02, r^2= 4.5D+00
   Bfn.  Coefficient  Atom+Function         Bfn.  Coefficient  Atom+Function  
  ----- ------------  ---------------      ----- ------------  ---------------
    21      2.338194  2 C  s                 55     -1.251670  8 H  s          
    47      1.079302  4 H  s                 53     -1.054110  7 H  s          
     6     -0.808588  1 C  s                  9     -0.674254  1 C  pz         
     8     -0.581836  1 C  py                51     -0.572004  6 H  s          
    57      0.434661  9 H  s                  5     -0.281011  1 C  pz         
 
 Vector   19  Occ=0.000000D+00  E= 2.022929D-01
              MO Center= -1.4D-01, -9.9D-01, -8.5D-02, r^2= 4.9D+00
   Bfn.  Coefficient  Atom+Function         Bfn.  Coefficient  Atom+Function  
  ----- ------------  ---------------      ----- ------------  ---------------
    21      1.677070  2 C  s                 47     -1.246226  4 H  s          
    55     -1.157428  8 H  s                  9      1.110663  1 C  pz         
    51      0.940755  6 H  s                 53     -0.913724  7 H  s          
     6     -0.890959  1 C  s                 49      0.849028  5 H  s          
    24     -0.727748  2 C  pz                57      0.484767  9 H  s          
 
 Vector   20  Occ=0.000000D+00  E= 2.422425D-01
              MO Center=  9.3D-02, -3.2D-01, -4.7D-01, r^2= 4.6D+00
   Bfn.  Coefficient  Atom+Function         Bfn.  Coefficient  Atom+Function  
  ----- ------------  ---------------      ----- ------------  ---------------
    53      1.818317  7 H  s                 55     -1.441479  8 H  s          
    22     -1.397433  2 C  px                49     -1.214480  5 H  s          
     7      1.076066  1 C  px                51      0.971720  6 H  s          
    57     -0.505226  9 H  s                 18     -0.348886  2 C  px         
    36      0.331528  3 O  s                  3      0.272720  1 C  px         
 
 Vector   21  Occ=0.000000D+00  E= 3.838138D-01
              MO Center= -3.8D-02, -7.4D-01,  6.7D-02, r^2= 3.7D+00
   Bfn.  Coefficient  Atom+Function         Bfn.  Coefficient  Atom+Function  
  ----- ------------  ---------------      ----- ------------  ---------------
    23      3.526854  2 C  py                 8      2.640734  1 C  py         
     6      2.023541  1 C  s                 36     -1.840525  3 O  s          
    55     -1.158889  8 H  s                 38      0.975264  3 O  py         
    53     -0.901279  7 H  s                 19      0.556987  2 C  py         
    51      0.506612  6 H  s                 49      0.391919  5 H  s          
 
 Vector   22  Occ=0.000000D+00  E= 4.848737D-01
              MO Center=  4.7D-02, -5.5D-01,  2.1D-02, r^2= 2.8D+00
   Bfn.  Coefficient  Atom+Function         Bfn.  Coefficient  Atom+Function  
  ----- ------------  ---------------      ----- ------------  ---------------
    22      0.965403  2 C  px                 3     -0.430689  1 C  px         
    18     -0.412627  2 C  px                54      0.355182  8 H  s          
     7      0.347846  1 C  px                52     -0.334413  7 H  s          
    50      0.302986  6 H  s                 48     -0.289571  5 H  s          
    49      0.228721  5 H  s                 51     -0.228211  6 H  s          
 
 Vector   23  Occ=0.000000D+00  E= 5.411982D-01
              MO Center= -1.1D-02, -6.1D-01, -1.8D-02, r^2= 2.5D+00
   Bfn.  Coefficient  Atom+Function         Bfn.  Coefficient  Atom+Function  
  ----- ------------  ---------------      ----- ------------  ---------------
    24      0.729318  2 C  pz                 9      0.697174  1 C  pz         
    20     -0.684680  2 C  pz                 8     -0.463307  1 C  py         
     5     -0.429809  1 C  pz                46     -0.380874  4 H  s          
    23     -0.297462  2 C  py                19     -0.263159  2 C  py         
    36      0.215913  3 O  s                 55      0.202932  8 H  s          
 
 Vector   24  Occ=0.000000D+00  E= 6.104072D-01
              MO Center=  1.2D-02, -1.2D-03,  2.8D-01, r^2= 2.7D+00
   Bfn.  Coefficient  Atom+Function         Bfn.  Coefficient  Atom+Function  
  ----- ------------  ---------------      ----- ------------  ---------------
    23      2.727851  2 C  py                36     -1.444216  3 O  s          
     6      1.321623  1 C  s                  8      1.178194  1 C  py         
    21      1.119887  2 C  s                  9     -0.695167  1 C  pz         
    53     -0.616638  7 H  s                 19     -0.611734  2 C  py         
    38      0.560006  3 O  py                55     -0.521962  8 H  s          
 
 Vector   25  Occ=0.000000D+00  E= 6.530423D-01
              MO Center= -1.2D-01, -4.8D-01,  1.4D-01, r^2= 2.9D+00
   Bfn.  Coefficient  Atom+Function         Bfn.  Coefficient  Atom+Function  
  ----- ------------  ---------------      ----- ------------  ---------------
    23      2.080304  2 C  py                21      1.320017  2 C  s          
     6      0.993267  1 C  s                  4      0.886478  1 C  py         
    36     -0.819230  3 O  s                 38      0.797282  3 O  py         
     8     -0.620541  1 C  py                55     -0.473012  8 H  s          
    53     -0.371773  7 H  s                  7      0.340037  1 C  px         
 
 Vector   26  Occ=0.000000D+00  E= 6.945412D-01
              MO Center=  1.6D-01, -6.9D-01,  3.4D-01, r^2= 3.0D+00
   Bfn.  Coefficient  Atom+Function         Bfn.  Coefficient  Atom+Function  
  ----- ------------  ---------------      ----- ------------  ---------------
     7      1.894740  1 C  px                22     -1.892600  2 C  px         
    23      0.993678  2 C  py                55     -0.810343  8 H  s          
    51      0.776003  6 H  s                  8      0.752030  1 C  py         
     3     -0.558160  1 C  px                18      0.486713  2 C  px         
     6      0.455078  1 C  s                  9      0.412267  1 C  pz         
 
 Vector   27  Occ=0.000000D+00  E= 7.019055D-01
              MO Center= -1.8D-01, -3.3D-01, -1.3D-01, r^2= 3.3D+00
   Bfn.  Coefficient  Atom+Function         Bfn.  Coefficient  Atom+Function  
  ----- ------------  ---------------      ----- ------------  ---------------
    23      3.249911  2 C  py                 8      1.588181  1 C  py         
    24     -1.513092  2 C  pz                 6      1.353226  1 C  s          
     9      1.357885  1 C  pz                36     -1.318173  3 O  s          
    53     -1.200352  7 H  s                 38      0.690667  3 O  py         
    49      0.680102  5 H  s                 21      0.646974  2 C  s          
 
 Vector   28  Occ=0.000000D+00  E= 7.905971D-01
              MO Center=  1.2D-01,  9.0D-01, -6.9D-03, r^2= 3.1D+00
   Bfn.  Coefficient  Atom+Function         Bfn.  Coefficient  Atom+Function  
  ----- ------------  ---------------      ----- ------------  ---------------
    23      1.590165  2 C  py                 8      1.035638  1 C  py         
    21     -0.900239  2 C  s                 55     -0.752296  8 H  s          
    56      0.721868  9 H  s                 57     -0.678607  9 H  s          
     6      0.620334  1 C  s                 19     -0.467089  2 C  py         
     7     -0.446962  1 C  px                54      0.423530  8 H  s          
 
 Vector   29  Occ=0.000000D+00  E= 8.579960D-01
              MO Center=  1.6D-01, -1.1D+00, -1.1D-01, r^2= 3.2D+00
   Bfn.  Coefficient  Atom+Function         Bfn.  Coefficient  Atom+Function  
  ----- ------------  ---------------      ----- ------------  ---------------
    21      1.360728  2 C  s                 49      1.308751  5 H  s          
     7     -1.015656  1 C  px                47     -1.017602  4 H  s          
     9      0.959914  1 C  pz                51     -0.764751  6 H  s          
    55     -0.758828  8 H  s                  3      0.630349  1 C  px         
    48     -0.624701  5 H  s                 53      0.575859  7 H  s          
 
 Vector   30  Occ=0.000000D+00  E= 8.687944D-01
              MO Center= -2.1D-01, -1.5D+00,  1.6D-01, r^2= 3.0D+00
   Bfn.  Coefficient  Atom+Function         Bfn.  Coefficient  Atom+Function  
  ----- ------------  ---------------      ----- ------------  ---------------
    47      1.526037  4 H  s                 51     -1.406221  6 H  s          
     9     -1.311291  1 C  pz                 5      0.727391  1 C  pz         
     7     -0.661520  1 C  px                50      0.662390  6 H  s          
    21     -0.577214  2 C  s                 46     -0.577451  4 H  s          
     3      0.437533  1 C  px                24      0.312157  2 C  pz         
 
 Vector   31  Occ=0.000000D+00  E= 8.951130D-01
              MO Center=  2.2D-01, -3.2D-01, -1.8D-01, r^2= 3.9D+00
   Bfn.  Coefficient  Atom+Function         Bfn.  Coefficient  Atom+Function  
  ----- ------------  ---------------      ----- ------------  ---------------
    21      3.043910  2 C  s                 49     -0.995076  5 H  s          
    55     -0.875439  8 H  s                 17     -0.823852  2 C  s          
     8     -0.802382  1 C  py                38      0.774202  3 O  py         
     6      0.766272  1 C  s                 24     -0.745912  2 C  pz         
    23      0.720549  2 C  py                57     -0.669877  9 H  s          
 
 Vector   32  Occ=0.000000D+00  E= 9.181899D-01
              MO Center=  1.4D-01,  3.0D-01, -2.6D-01, r^2= 3.0D+00
   Bfn.  Coefficient  Atom+Function         Bfn.  Coefficient  Atom+Function  
  ----- ------------  ---------------      ----- ------------  ---------------
    53      1.377715  7 H  s                 55     -1.154848  8 H  s          
    22     -1.064161  2 C  px                21     -0.756784  2 C  s          
    18      0.690429  2 C  px                51      0.660742  6 H  s          
    54      0.551743  8 H  s                 49     -0.512427  5 H  s          
    37     -0.506111  3 O  px                52     -0.492422  7 H  s          
 
 Vector   33  Occ=0.000000D+00  E= 9.375953D-01
              MO Center= -3.8D-02,  1.1D+00, -1.5D-01, r^2= 2.7D+00
   Bfn.  Coefficient  Atom+Function         Bfn.  Coefficient  Atom+Function  
  ----- ------------  ---------------      ----- ------------  ---------------
    21      2.264773  2 C  s                 53     -1.015434  7 H  s          
    17     -1.008397  2 C  s                 24     -0.918216  2 C  pz         
    55     -0.867636  8 H  s                 57      0.855085  9 H  s          
    38     -0.691542  3 O  py                36     -0.657110  3 O  s          
     8     -0.472110  1 C  py                56     -0.465766  9 H  s          
 
 Vector   34  Occ=0.000000D+00  E= 9.876586D-01
              MO Center= -7.3D-02,  8.3D-01,  4.4D-02, r^2= 3.0D+00
   Bfn.  Coefficient  Atom+Function         Bfn.  Coefficient  Atom+Function  
  ----- ------------  ---------------      ----- ------------  ---------------
    21      1.882219  2 C  s                  6      1.504922  1 C  s          
    39     -1.106724  3 O  pz                35      0.771831  3 O  pz         
    53     -0.677543  7 H  s                 17     -0.647269  2 C  s          
     2     -0.642043  1 C  s                  8     -0.541192  1 C  py         
    55     -0.522330  8 H  s                 47     -0.513368  4 H  s          
 
 Vector   35  Occ=0.000000D+00  E= 9.961692D-01
              MO Center= -1.0D-02, -1.6D+00, -5.6D-02, r^2= 2.9D+00
   Bfn.  Coefficient  Atom+Function         Bfn.  Coefficient  Atom+Function  
  ----- ------------  ---------------      ----- ------------  ---------------
     6      2.854194  1 C  s                 21     -1.379424  2 C  s          
     2     -1.311148  1 C  s                 51     -1.001269  6 H  s          
    49     -0.980690  5 H  s                 47     -0.929189  4 H  s          
    55      0.570068  8 H  s                 48      0.558916  5 H  s          
    50      0.558998  6 H  s                  8     -0.509646  1 C  py         
 
 Vector   36  Occ=0.000000D+00  E= 1.047191D+00
              MO Center= -1.0D-01,  5.3D-01, -1.7D-01, r^2= 2.5D+00
   Bfn.  Coefficient  Atom+Function         Bfn.  Coefficient  Atom+Function  
  ----- ------------  ---------------      ----- ------------  ---------------
    21      1.624650  2 C  s                 36      1.040311  3 O  s          
    23     -0.955509  2 C  py                55     -0.930062  8 H  s          
    17     -0.799106  2 C  s                 53     -0.761740  7 H  s          
     8     -0.646587  1 C  py                52      0.609896  7 H  s          
     2     -0.596262  1 C  s                  6      0.580355  1 C  s          
 
 Vector   37  Occ=0.000000D+00  E= 1.209924D+00
              MO Center= -1.5D-01,  1.1D+00,  9.2D-02, r^2= 2.2D+00
   Bfn.  Coefficient  Atom+Function         Bfn.  Coefficient  Atom+Function  
  ----- ------------  ---------------      ----- ------------  ---------------
    37      1.261930  3 O  px                38      1.238773  3 O  py         
    53      0.904962  7 H  s                 57     -0.906272  9 H  s          
    22     -0.758993  2 C  px                36      0.645232  3 O  s          
     6     -0.609988  1 C  s                 33     -0.538953  3 O  px         
    54      0.477429  8 H  s                 34     -0.459807  3 O  py         
 
 Vector   38  Occ=0.000000D+00  E= 1.348219D+00
              MO Center=  1.1D-01, -7.1D-01,  3.1D-02, r^2= 3.4D+00
   Bfn.  Coefficient  Atom+Function         Bfn.  Coefficient  Atom+Function  
  ----- ------------  ---------------      ----- ------------  ---------------
     6      4.731471  1 C  s                 21     -3.669459  2 C  s          
    36      2.021430  3 O  s                  2     -1.437993  1 C  s          
    17      0.886855  2 C  s                 32     -0.792946  3 O  s          
    53      0.706986  7 H  s                 49     -0.670548  5 H  s          
    38     -0.630491  3 O  py                51     -0.612413  6 H  s          
 
 Vector   39  Occ=0.000000D+00  E= 1.416393D+00
              MO Center= -4.9D-02, -8.8D-03, -2.6D-02, r^2= 1.8D+00
   Bfn.  Coefficient  Atom+Function         Bfn.  Coefficient  Atom+Function  
  ----- ------------  ---------------      ----- ------------  ---------------
    29      0.855565  2 C  dyz                6     -0.764044  1 C  s          
    44     -0.658714  3 O  dyz               14     -0.574237  1 C  dyz        
    21      0.562944  2 C  s                 23     -0.392313  2 C  py         
    36      0.392725  3 O  s                 55     -0.334510  8 H  s          
    25      0.325839  2 C  dxx               10      0.294767  1 C  dxx        
 
 Vector   40  Occ=0.000000D+00  E= 1.528968D+00
              MO Center= -7.3D-02, -3.1D-02, -4.4D-03, r^2= 2.4D+00
   Bfn.  Coefficient  Atom+Function         Bfn.  Coefficient  Atom+Function  
  ----- ------------  ---------------      ----- ------------  ---------------
     6      1.758715  1 C  s                 21     -1.053723  2 C  s          
    23      0.930697  2 C  py                26     -0.747628  2 C  dxy        
    37      0.734717  3 O  px                11      0.695456  1 C  dxy        
    12     -0.582762  1 C  dxz               27     -0.489338  2 C  dxz        
    38      0.465037  3 O  py                55      0.436811  8 H  s          
 
 Vector   41  Occ=0.000000D+00  E= 1.734675D+00
              MO Center= -9.1D-04,  2.3D-01,  1.1D-01, r^2= 3.2D+00
   Bfn.  Coefficient  Atom+Function         Bfn.  Coefficient  Atom+Function  
  ----- ------------  ---------------      ----- ------------  ---------------
    36     -5.710842  3 O  s                 23      5.670414  2 C  py         
     6      5.110144  1 C  s                 38      1.660919  3 O  py         
     8      1.484411  1 C  py                32      1.480191  3 O  s          
     2     -0.775451  1 C  s                 53     -0.680667  7 H  s          
    43      0.649305  3 O  dyy               21      0.561644  2 C  s          
 
 Vector   42  Occ=0.000000D+00  E= 1.788700D+00
              MO Center= -7.3D-02,  1.6D-01,  4.0D-02, r^2= 2.5D+00
   Bfn.  Coefficient  Atom+Function         Bfn.  Coefficient  Atom+Function  
  ----- ------------  ---------------      ----- ------------  ---------------
    42      1.035921  3 O  dxz               44      0.746884  3 O  dyz        
    14     -0.679125  1 C  dyz                6     -0.594004  1 C  s          
    23     -0.540141  2 C  py                36      0.482411  3 O  s          
    15     -0.434392  1 C  dzz                9     -0.431306  1 C  pz         
    10      0.401225  1 C  dxx               24      0.332028  2 C  pz         
 
 Vector   43  Occ=0.000000D+00  E= 1.801510D+00
              MO Center= -5.5D-02,  1.2D-01,  3.3D-02, r^2= 2.7D+00
   Bfn.  Coefficient  Atom+Function         Bfn.  Coefficient  Atom+Function  
  ----- ------------  ---------------      ----- ------------  ---------------
    23      2.426600  2 C  py                36     -2.367445  3 O  s          
     6      1.945493  1 C  s                 38      0.771742  3 O  py         
    12     -0.756752  1 C  dxz               42      0.672823  3 O  dxz        
    21      0.644927  2 C  s                 55     -0.644681  8 H  s          
     8      0.608397  1 C  py                32      0.592664  3 O  s          
 
 Vector   44  Occ=0.000000D+00  E= 1.822667D+00
              MO Center= -1.6D-02,  5.6D-01,  4.3D-02, r^2= 2.1D+00
   Bfn.  Coefficient  Atom+Function         Bfn.  Coefficient  Atom+Function  
  ----- ------------  ---------------      ----- ------------  ---------------
    42      1.105167  3 O  dxz               36      0.884152  3 O  s          
    23     -0.850528  2 C  py                41      0.546594  3 O  dxy        
    27     -0.515621  2 C  dxz                6     -0.505141  1 C  s          
    21     -0.476960  2 C  s                 44     -0.476688  3 O  dyz        
    11     -0.444140  1 C  dxy               12      0.414500  1 C  dxz        
 
 Vector   45  Occ=0.000000D+00  E= 1.972635D+00
              MO Center= -1.9D-02, -6.9D-01,  1.8D-02, r^2= 1.6D+00
   Bfn.  Coefficient  Atom+Function         Bfn.  Coefficient  Atom+Function  
  ----- ------------  ---------------      ----- ------------  ---------------
    13      0.748253  1 C  dyy               36      0.732389  3 O  s          
     8      0.635707  1 C  py                25     -0.531215  2 C  dxx        
    21     -0.502232  2 C  s                 10     -0.432009  1 C  dxx        
    17     -0.416156  2 C  s                 32     -0.375551  3 O  s          
     2     -0.371321  1 C  s                 28      0.362298  2 C  dyy        
 
 Vector   46  Occ=0.000000D+00  E= 1.989071D+00
              MO Center= -2.8D-02, -1.3D-01, -1.9D-02, r^2= 1.4D+00
   Bfn.  Coefficient  Atom+Function         Bfn.  Coefficient  Atom+Function  
  ----- ------------  ---------------      ----- ------------  ---------------
    21      2.060304  2 C  s                 23      1.293536  2 C  py         
    30     -0.835614  2 C  dzz               36     -0.825607  3 O  s          
    24     -0.667316  2 C  pz                53     -0.653144  7 H  s          
    14      0.616921  1 C  dyz               55     -0.617692  8 H  s          
    25      0.611148  2 C  dxx               52     -0.585864  7 H  s          
 
 Vector   47  Occ=0.000000D+00  E= 2.092459D+00
              MO Center=  2.0D-02, -2.2D-01, -5.4D-03, r^2= 2.4D+00
   Bfn.  Coefficient  Atom+Function         Bfn.  Coefficient  Atom+Function  
  ----- ------------  ---------------      ----- ------------  ---------------
    12      1.098156  1 C  dxz               26     -1.032781  2 C  dxy        
    36      0.722183  3 O  s                 11      0.567323  1 C  dxy        
    48      0.487428  5 H  s                 37      0.475799  3 O  px         
    56     -0.476127  9 H  s                 45     -0.469956  3 O  dzz        
    40      0.464493  3 O  dxx                6     -0.444115  1 C  s          
 
 Vector   48  Occ=0.000000D+00  E= 2.196301D+00
              MO Center= -2.3D-02, -6.6D-01,  7.4D-02, r^2= 2.3D+00
   Bfn.  Coefficient  Atom+Function         Bfn.  Coefficient  Atom+Function  
  ----- ------------  ---------------      ----- ------------  ---------------
    44     -0.945379  3 O  dyz               14      0.883401  1 C  dyz        
    46      0.638951  4 H  s                 29     -0.633308  2 C  dyz        
    15     -0.629743  1 C  dzz               10      0.615494  1 C  dxx        
    50     -0.390709  6 H  s                  9     -0.365211  1 C  pz         
    21     -0.351342  2 C  s                 48     -0.259339  5 H  s          
 
 Vector   49  Occ=0.000000D+00  E= 2.248628D+00
              MO Center=  4.1D-02,  5.4D-02, -3.6D-02, r^2= 1.9D+00
   Bfn.  Coefficient  Atom+Function         Bfn.  Coefficient  Atom+Function  
  ----- ------------  ---------------      ----- ------------  ---------------
    27      1.384108  2 C  dxz               11      0.944846  1 C  dxy        
    36     -0.808754  3 O  s                 52      0.660853  7 H  s          
    37     -0.622407  3 O  px                54     -0.551652  8 H  s          
    22     -0.513243  2 C  px                56      0.475298  9 H  s          
    42      0.406055  3 O  dxz               23      0.356888  2 C  py         
 
 Vector   50  Occ=0.000000D+00  E= 2.429175D+00
              MO Center= -1.2D-02,  3.2D-01,  1.0D-02, r^2= 2.5D+00
   Bfn.  Coefficient  Atom+Function         Bfn.  Coefficient  Atom+Function  
  ----- ------------  ---------------      ----- ------------  ---------------
    36      1.121806  3 O  s                 41      1.079216  3 O  dxy        
    27      0.905270  2 C  dxz               56     -0.880327  9 H  s          
    12     -0.781681  1 C  dxz               23     -0.719187  2 C  py         
    11     -0.671321  1 C  dxy                6     -0.585971  1 C  s          
    54     -0.522682  8 H  s                 37      0.481296  3 O  px         
 
 Vector   51  Occ=0.000000D+00  E= 2.577892D+00
              MO Center= -5.2D-02,  1.4D-01,  1.6D-02, r^2= 2.2D+00
   Bfn.  Coefficient  Atom+Function         Bfn.  Coefficient  Atom+Function  
  ----- ------------  ---------------      ----- ------------  ---------------
    23      2.761379  2 C  py                36     -2.718938  3 O  s          
     6      2.640308  1 C  s                 38      1.434364  3 O  py         
     8      1.288189  1 C  py                21     -1.005063  2 C  s          
    32      1.001689  3 O  s                 19      0.690846  2 C  py         
    43     -0.648678  3 O  dyy               17      0.603421  2 C  s          
 
 Vector   52  Occ=0.000000D+00  E= 2.628008D+00
              MO Center= -3.0D-02, -1.4D-01,  6.1D-02, r^2= 2.0D+00
   Bfn.  Coefficient  Atom+Function         Bfn.  Coefficient  Atom+Function  
  ----- ------------  ---------------      ----- ------------  ---------------
    29      1.444247  2 C  dyz                6      1.162630  1 C  s          
    14      1.060756  1 C  dyz               44      1.044892  3 O  dyz        
    23      1.027760  2 C  py                36     -0.923341  3 O  s          
    21     -0.717708  2 C  s                  8      0.586378  1 C  py         
    38      0.476506  3 O  py                15     -0.410711  1 C  dzz        
 
 Vector   53  Occ=0.000000D+00  E= 2.733044D+00
              MO Center= -9.0D-03,  3.9D-01,  3.8D-02, r^2= 2.1D+00
   Bfn.  Coefficient  Atom+Function         Bfn.  Coefficient  Atom+Function  
  ----- ------------  ---------------      ----- ------------  ---------------
    26      1.477054  2 C  dxy               41      1.453649  3 O  dxy        
    11      0.871261  1 C  dxy               36      0.796089  3 O  s          
    56     -0.756369  9 H  s                 27     -0.473253  2 C  dxz        
    23     -0.436410  2 C  py                52     -0.384306  7 H  s          
    12      0.382122  1 C  dxz                6     -0.332840  1 C  s          
 
 Vector   54  Occ=0.000000D+00  E= 3.097051D+00
              MO Center= -4.7D-02,  5.1D-01,  4.7D-02, r^2= 1.8D+00
   Bfn.  Coefficient  Atom+Function         Bfn.  Coefficient  Atom+Function  
  ----- ------------  ---------------      ----- ------------  ---------------
    36      2.845063  3 O  s                 21     -2.568510  2 C  s          
    38     -1.802620  3 O  py                23     -1.503711  2 C  py         
    43      1.125067  3 O  dyy               28     -1.066006  2 C  dyy        
    17     -0.945576  2 C  s                 25      0.903868  2 C  dxx        
    30      0.796364  2 C  dzz               32     -0.723959  3 O  s          
 
 Vector   55  Occ=0.000000D+00  E= 4.023917D+00
              MO Center= -4.0D-02,  8.6D-01,  6.0D-02, r^2= 2.2D+00
   Bfn.  Coefficient  Atom+Function         Bfn.  Coefficient  Atom+Function  
  ----- ------------  ---------------      ----- ------------  ---------------
    36      7.001321  3 O  s                 23     -3.582216  2 C  py         
     6     -3.018355  1 C  s                 45     -1.776888  3 O  dzz        
    40     -1.744177  3 O  dxx               43     -1.571103  3 O  dyy        
    21     -1.439344  2 C  s                 38     -1.360303  3 O  py         
    17     -1.312606  2 C  s                  2     -0.858452  1 C  s          
 
 Vector   56  Occ=0.000000D+00  E= 4.152749D+00
              MO Center= -1.8D-02, -4.7D-01,  3.2D-02, r^2= 2.3D+00
   Bfn.  Coefficient  Atom+Function         Bfn.  Coefficient  Atom+Function  
  ----- ------------  ---------------      ----- ------------  ---------------
    36      4.461110  3 O  s                 23     -2.313095  2 C  py         
     2      2.267453  1 C  s                 10     -1.369798  1 C  dxx        
    15     -1.375923  1 C  dzz               13     -1.354149  1 C  dyy        
    17      1.167802  2 C  s                 38     -1.141494  3 O  py         
    40     -1.094117  3 O  dxx               45     -1.095328  3 O  dzz        
 
 Vector   57  Occ=0.000000D+00  E= 4.543129D+00
              MO Center= -2.4D-02, -4.7D-01,  3.0D-02, r^2= 1.5D+00
   Bfn.  Coefficient  Atom+Function         Bfn.  Coefficient  Atom+Function  
  ----- ------------  ---------------      ----- ------------  ---------------
     6      2.945425  1 C  s                 28      2.257684  2 C  dyy        
    17     -2.245954  2 C  s                 36     -2.052931  3 O  s          
    23      1.752406  2 C  py                 2      1.567648  1 C  s          
    13     -1.489374  1 C  dyy               25      1.348908  2 C  dxx        
    30      1.342232  2 C  dzz               21     -1.223483  2 C  s          
 

 center of mass
 --------------
 x =  -0.02754559 y =   0.12388266 z =   0.03060847

 moments of inertia (a.u.)
 ------------------
         267.382511385409          -0.000000000000           0.000000000000
          -0.000000000000          17.920130818756           0.000000000000
           0.000000000000           0.000000000000         272.740772407230
 
     Multipole analysis of the density
     ---------------------------------
 
     L   x y z        total         alpha         beta         nuclear
     -   - - -        -----         -----         ----         -------
     0   0 0 0     -0.000000    -13.000000    -13.000000     26.000000
 
     1   1 0 0      0.483690      0.241845      0.241845      0.000000
     1   0 1 0     -0.016437     -0.008218     -0.008218      0.000000
     1   0 0 1     -0.032553     -0.016277     -0.016277     -0.000000
 
     2   2 0 0    -14.136638    -12.796861    -12.796861     11.457084
     2   1 1 0      2.084394     -0.125516     -0.125516      2.335426
     2   1 0 1      0.158057      0.047206      0.047206      0.063646
     2   0 2 0    -13.246873    -86.359777    -86.359777    159.472681
     2   0 1 1     -0.017867      0.401324      0.401324     -0.820515
     2   0 0 2    -15.586630    -10.879358    -10.879358      6.172087
 

 Parallel integral file used      40 records with       0 large values

 
            General Information
            -------------------
          SCF calculation type: DFT
          Wavefunction type:  closed shell.
          No. of atoms     :     9
          No. of electrons :    26
           Alpha electrons :    13
            Beta electrons :    13
          Charge           :     0
          Spin multiplicity:     1
          Use of symmetry is: off; symmetry adaption is: off
          Maximum number of iterations:  50
          AO basis - number of functions:    57
                     number of shells:    30
          Convergence on energy requested:  1.00D-06
          Convergence on density requested:  1.00D-05
          Convergence on gradient requested:  5.00D-04
 
              XC Information
              --------------
                         B3LYP Method XC Potential
                     Hartree-Fock (Exact) Exchange  0.200          
                        Slater Exchange Functional  0.800 local    
                    Becke 1988 Exchange Functional  0.720 non-local
              Lee-Yang-Parr Correlation Functional  0.810          
                  VWN I RPA Correlation Functional  0.190 local    
 
             Grid Information
             ----------------
          Grid used for XC integration:  xfine     
          Radial quadrature: Mura-Knowles        
          Angular quadrature: Lebedev. 
          Tag              B.-S. Rad. Rad. Pts. Rad. Cut. Ang. Pts.
          ---              ---------- --------- --------- ---------
          C                   0.70      100          10.0      1454
          O                   0.60      100          10.0      1454
          H                   0.35      100          11.0      1202
          Grid pruning is: on 
          Number of quadrature shells:   900
          Spatial weights used:  Erf1
 
          Convergence Information
          -----------------------
          Convergence aids based upon iterative change in 
          total energy or number of iterations. 
          Levelshifting, if invoked, occurs when the 
          HOMO/LUMO gap drops below (HL_TOL):  1.00D-02
          DIIS, if invoked, will attempt to extrapolate 
          using up to (NFOCK): 10 stored Fock matrices.

                    Damping( 0%)  Levelshifting(0.5)       DIIS
                  --------------- ------------------- ---------------
          dE  on:    start            ASAP                start   
          dE off:    2 iters         50 iters            50 iters 

 
      Screening Tolerance Information
      -------------------------------
          Density screening/tol_rho:  1.00D-10
          AO Gaussian exp screening on grid/accAOfunc:  14
          CD Gaussian exp screening on grid/accCDfunc:  20
          XC Gaussian exp screening on grid/accXCfunc:  20
          Schwarz screening/accCoul:  1.00D-08

 
 
                            NWChem DFT Gradient Module
                            --------------------------
 
 
                          ethanol opt+freq (B3LYP/6-31g*)
 
 

  charge          =   0.00
  wavefunction    = closed shell



                         DFT ENERGY GRADIENTS

    atom               coordinates                        gradient
                 x          y          z           x          y          z
   1 C       0.001415  -2.740350   0.052881   -0.008964   0.041709  -0.073996
   2 C      -0.060966   0.150206   0.070214   -0.009604   0.135729   0.088581
   3 O      -0.115192   2.662912   0.085282    0.043626  -0.327141  -0.170159
   4 H       0.053634  -3.770544   1.822821    0.000043   0.002931  -0.022127
   5 H       1.538431  -3.722371  -0.867098   -0.023787  -0.021066   0.010559
   6 H      -1.521770  -3.788722  -0.815432    0.025592  -0.022904   0.009582
   7 H       1.437317   0.962975  -0.839003   -0.092391   0.106668   0.100092
   8 H      -1.622884   0.896623  -0.787337    0.096529   0.095430   0.078440
   9 H       1.394114   3.659606   0.065226   -0.031044  -0.011355  -0.020972
 
                 ----------------------------------------
                 |  Time  |  1-e(secs)   |  2-e(secs)   |
                 ----------------------------------------
                 |  CPU   |       0.00   |       0.03   |
                 ----------------------------------------
                 |  WALL  |       0.00   |       0.04   |
                 ----------------------------------------
  no constraints, skipping   0.000000000000000E+000

@ Step       Energy      Delta E   Gmax     Grms     Xrms     Xmax   Walltime
@ ---- ---------------- -------- -------- -------- -------- -------- --------
@    0    -154.68743264  0.0D+00  0.33983  0.06559  0.00000  0.00000      9.2
                                                                    



                                Z-matrix (autoz)
                                -------- 

 Units are Angstrom for bonds and degrees for angles
 
      Type          Name      I     J     K     L     M      Value     Gradient
      ----------- --------  ----- ----- ----- ----- ----- ---------- ----------
    1 Stretch                  1     2                       1.53000   -0.00037
    2 Stretch                  1     4                       1.08407   -0.02059
    3 Stretch                  1     5                       1.08102   -0.01253
    4 Stretch                  1     6                       1.08102   -0.01140
    5 Stretch                  2     3                       1.33000   -0.33983
    6 Stretch                  2     7                       1.02230   -0.07388
    7 Stretch                  2     8                       1.02230   -0.07599
    8 Stretch                  3     9                       0.95718   -0.03193
    9 Bend                     1     2     7               113.64421    0.06193
   10 Bend                     1     2     8               113.64421    0.05361
   11 Bend                     2     1     4               119.87599   -0.00332
   12 Bend                     2     1     5               119.96885    0.01507
   13 Bend                     2     1     6               119.96885    0.01743
   14 Bend                     2     3     9               122.19573    0.00702
   15 Bend                     3     2     7                66.35579   -0.06777
   16 Bend                     3     2     8                66.35579   -0.05980
   17 Bend                     4     1     5                97.36377   -0.00922
   18 Bend                     4     1     6                97.36377   -0.01009
   19 Bend                     5     1     6                97.05847   -0.01881
   20 Bend                     7     2     8               104.80758   -0.04444
   21 Torsion                  4     1     3     9          90.00000    0.00393
   22 Torsion                  1     4     2     3         180.00000   -0.00048
   23 Torsion                  4     1     2     7         120.12432   -0.01657
   24 Torsion                  4     1     2     8        -120.12432    0.01163
   25 Torsion                  5     1     3     9         -30.12432    0.00341
   26 Torsion                  1     5     2     3         180.00000    0.02540
   27 Torsion                  5     1     2     7           0.00000   -0.01423
   28 Torsion                  5     1     2     8         119.75136    0.01397
   29 Torsion                  6     1     3     9        -149.87568    0.00532
   30 Torsion                  1     6     2     3        -180.00000   -0.02491
   31 Torsion                  6     1     2     7        -119.75136   -0.01788
   32 Torsion                  6     1     2     8           0.00000    0.01032
   33 Torsion                  7     2     3     9         -30.12432    0.02099
   34 Torsion                  8     2     3     9        -149.87568   -0.01629
   35 Torsion                  1     2     9     3         180.00000   -0.02975
 
 Restricting large step in mode    1 eval= 4.4D-04 step= 1.0D+01 new= 3.0D-01
 Restricting large step in mode    2 eval= 6.4D-04 step=-9.7D+00 new=-3.0D-01
 Restricting large step in mode    3 eval= 5.6D-03 step=-2.8D+00 new=-3.0D-01
 Restricting large step in mode    4 eval= 9.9D-03 step= 1.7D+00 new= 3.0D-01
 Restricting large step in mode    5 eval= 1.4D-02 step= 1.7D+00 new= 3.0D-01
 Restricting large step in mode    6 eval= 1.9D-02 step=-3.8D-01 new=-3.0D-01
 Restricting large step in mode    7 eval= 2.3D-02 step=-1.6D+00 new=-3.0D-01
 Restricting large step in mode    8 eval= 3.6D-02 step= 3.8D-01 new= 3.0D-01
 Restricting large step in mode    9 eval= 4.2D-02 step=-3.3D-01 new=-3.0D-01
 Restricting large step in mode   10 eval= 4.9D-02 step= 8.0D-01 new= 3.0D-01
 Restricting large step in mode   11 eval= 5.4D-02 step=-5.0D-01 new=-3.0D-01
 Restricting large step in mode   12 eval= 5.7D-02 step= 9.0D-01 new= 3.0D-01
 Restricting large step in mode   13 eval= 6.8D-02 step=-5.1D-01 new=-3.0D-01
 Restricting large step in mode   20 eval= 4.7D-01 step= 8.0D-01 new= 3.0D-01
 Restricting overall step due to large component. alpha=  0.61
  no constraints, skipping   0.000000000000000E+000
  no constraints, skipping   0.000000000000000E+000
  no constraints, skipping   0.000000000000000E+000
  no constraints, skipping   0.000000000000000E+000
  no constraints, skipping   0.000000000000000E+000
  no constraints, skipping   0.000000000000000E+000
  no constraints, skipping   0.000000000000000E+000
  no constraints, skipping   0.000000000000000E+000
 
                                 NWChem DFT Module
                                 -----------------
 
 
                          ethanol opt+freq (B3LYP/6-31g*)
 
 


 Summary of "ao basis" -> "ao basis" (cartesian)
 ------------------------------------------------------------------------------
       Tag                 Description            Shells   Functions and Types
 ---------------- ------------------------------  ------  ---------------------
 C                           6-31g*                  6       15   3s2p1d
 O                           6-31g*                  6       15   3s2p1d
 H                           6-31g*                  2        2   2s


  Caching 1-el integrals 
 
            General Information
            -------------------
          SCF calculation type: DFT
          Wavefunction type:  closed shell.
          No. of atoms     :     9
          No. of electrons :    26
           Alpha electrons :    13
            Beta electrons :    13
          Charge           :     0
          Spin multiplicity:     1
          Use of symmetry is: off; symmetry adaption is: off
          Maximum number of iterations:  50
          AO basis - number of functions:    57
                     number of shells:    30
          Convergence on energy requested:  1.00D-06
          Convergence on density requested:  1.00D-05
          Convergence on gradient requested:  5.00D-04
 
              XC Information
              --------------
                         B3LYP Method XC Potential
                     Hartree-Fock (Exact) Exchange  0.200          
                        Slater Exchange Functional  0.800 local    
                    Becke 1988 Exchange Functional  0.720 non-local
              Lee-Yang-Parr Correlation Functional  0.810          
                  VWN I RPA Correlation Functional  0.190 local    
 
             Grid Information
             ----------------
          Grid used for XC integration:  xfine     
          Radial quadrature: Mura-Knowles        
          Angular quadrature: Lebedev. 
          Tag              B.-S. Rad. Rad. Pts. Rad. Cut. Ang. Pts.
          ---              ---------- --------- --------- ---------
          C                   0.70      100          10.0      1454
          O                   0.60      100          10.0      1454
          H                   0.35      100          11.0      1202
          Grid pruning is: on 
          Number of quadrature shells:   900
          Spatial weights used:  Erf1
 
          Convergence Information
          -----------------------
          Convergence aids based upon iterative change in 
          total energy or number of iterations. 
          Levelshifting, if invoked, occurs when the 
          HOMO/LUMO gap drops below (HL_TOL):  1.00D-02
          DIIS, if invoked, will attempt to extrapolate 
          using up to (NFOCK): 10 stored Fock matrices.

                    Damping( 0%)  Levelshifting(0.5)       DIIS
                  --------------- ------------------- ---------------
          dE  on:    start            ASAP                start   
          dE off:    2 iters         50 iters            50 iters 

 
      Screening Tolerance Information
      -------------------------------
          Density screening/tol_rho:  1.00D-10
          AO Gaussian exp screening on grid/accAOfunc:  14
          CD Gaussian exp screening on grid/accCDfunc:  20
          XC Gaussian exp screening on grid/accXCfunc:  20
          Schwarz screening/accCoul:  1.00D-08


 Loading old vectors from job with title :

ethanol opt+freq (B3LYP/6-31g*)

   Time after variat. SCF:      9.2
   Time prior to 1st pass:      9.2

 Integral file          = ./ethanol.aoints.00
 Record size in doubles =  65536        No. of integs per rec  =  43688
 Max. records in memory =      5        Max. records in file   = 224877
 No. of bits per label  =      8        No. of bits per value  =     64


 #quartets = 1.010D+05 #integrals = 1.288D+06 #direct =  0.0% #cached =100.0%


File balance: exchanges=     0  moved=     0  time=   0.0


 Grid_pts file          = ./ethanol.gridpts.00
 Record size in doubles =  12289        No. of grid_pts per rec  =   3070
 Max. records in memory =     26        Max. recs in file   =   1199253


           Memory utilization after 1st SCF pass: 
           Heap Space remaining (MW):       25.56            25564410
          Stack Space remaining (MW):       26.21            26213860

   convergence    iter        energy       DeltaE   RMS-Dens  Diis-err    time
 ---------------- ----- ----------------- --------- --------- ---------  ------
 d= 0,ls=0.0,diis     1   -154.7724496736 -2.35D+02  7.57D-03  7.22D-02    10.6
 d= 0,ls=0.0,diis     2   -154.7873147044 -1.49D-02  2.23D-03  8.39D-03    12.3
 d= 0,ls=0.0,diis     3   -154.7865523963  7.62D-04  1.36D-03  1.70D-02    14.3
 d= 0,ls=0.0,diis     4   -154.7882244511 -1.67D-03  1.52D-04  6.76D-05    14.6
 d= 0,ls=0.0,diis     5   -154.7882311230 -6.67D-06  4.03D-05  9.99D-06    15.0
 d= 0,ls=0.0,diis     6   -154.7882323047 -1.18D-06  1.77D-05  4.97D-07    16.6
 d= 0,ls=0.0,diis     7   -154.7882323824 -7.78D-08  3.73D-06  3.00D-08    17.0


         Total DFT energy =     -154.788232382428
      One electron energy =     -368.741918828047
           Coulomb energy =      155.186944000683
    Exchange-Corr. energy =      -21.768197965889
 Nuclear repulsion energy =       80.534940410824

 Numeric. integr. density =       26.000000004396

     Total iterative time =      7.7s


 
                       DFT Final Molecular Orbital Analysis
                       ------------------------------------
 
 Vector    1  Occ=2.000000D+00  E=-1.914835D+01
              MO Center= -5.7D-02,  1.5D+00,  6.8D-02, r^2= 1.5D-02
   Bfn.  Coefficient  Atom+Function         Bfn.  Coefficient  Atom+Function  
  ----- ------------  ---------------      ----- ------------  ---------------
    31      0.992673  3 O  s                 32      0.025737  3 O  s          
 
 Vector    2  Occ=2.000000D+00  E=-1.020107D+01
              MO Center= -6.6D-02,  8.5D-02,  3.6D-02, r^2= 2.8D-02
   Bfn.  Coefficient  Atom+Function         Bfn.  Coefficient  Atom+Function  
  ----- ------------  ---------------      ----- ------------  ---------------
    16      0.992734  2 C  s                 17      0.049740  2 C  s          
 
 Vector    3  Occ=2.000000D+00  E=-1.019070D+01
              MO Center= -1.6D-02, -1.5D+00,  5.3D-02, r^2= 2.8D-02
   Bfn.  Coefficient  Atom+Function         Bfn.  Coefficient  Atom+Function  
  ----- ------------  ---------------      ----- ------------  ---------------
     1      0.992875  1 C  s                  2      0.049951  1 C  s          
 
 Vector    4  Occ=2.000000D+00  E=-1.048741D+00
              MO Center=  9.0D-02,  1.3D+00,  2.7D-02, r^2= 6.3D-01
   Bfn.  Coefficient  Atom+Function         Bfn.  Coefficient  Atom+Function  
  ----- ------------  ---------------      ----- ------------  ---------------
    36      0.467985  3 O  s                 32      0.426168  3 O  s          
    31     -0.198126  3 O  s                 17      0.144554  2 C  s          
    56      0.120260  9 H  s                 19      0.112542  2 C  py         
    33      0.089692  3 O  px                16     -0.078140  2 C  s          
    52      0.073299  7 H  s                 34     -0.071050  3 O  py         
 
 Vector    5  Occ=2.000000D+00  E=-7.463115D-01
              MO Center= -1.8D-02, -7.4D-01, -1.8D-02, r^2= 2.0D+00
   Bfn.  Coefficient  Atom+Function         Bfn.  Coefficient  Atom+Function  
  ----- ------------  ---------------      ----- ------------  ---------------
     2      0.311930  1 C  s                  6      0.254852  1 C  s          
[...]
           6     0.02480    -0.03685    -0.11029     0.01429     0.12238     0.00580
           7     0.21815    -0.03248     0.00241    -0.01125    -0.00128    -0.00400
           8    -0.03214    -0.13708     0.03930     0.05609    -0.00998    -0.01505
           9    -0.01390     0.00575    -0.20818     0.01641    -0.01617    -0.00491
          10     0.05238    -0.12141     0.00737    -0.07959     0.17496     0.32008
          11     0.00605    -0.12893     0.09781     0.09702     0.01255    -0.07985
          12     0.02814    -0.02163     0.03208     0.13573     0.19471    -0.04722
          13    -0.01428    -0.02063    -0.00267     0.07505    -0.00095     0.22958
          14    -0.11231    -0.15022    -0.00060     0.03467    -0.00638     0.10023
          15    -0.06359     0.10974     0.01531     0.33622    -0.03664    -0.15929
          16    -0.10348     0.02792    -0.00850     0.16685    -0.08033     0.24808
          17     0.00767    -0.13598    -0.05422    -0.02144    -0.08132    -0.04390
          18     0.03983    -0.03087     0.08724     0.15835     0.24807    -0.05431
          19     0.02647     0.13436    -0.01563     0.26943    -0.28489    -0.06537
          20    -0.02570    -0.14442    -0.13273    -0.07851    -0.11781     0.01959
          21     0.00407    -0.00910    -0.12779     0.04714     0.06392    -0.01401
          22     0.09308     0.03278    -0.00551     0.11373    -0.10752     0.02647
          23     0.09140    -0.12327    -0.03363    -0.01547    -0.09801    -0.15900
          24     0.09479    -0.13892    -0.11055    -0.15051     0.29299     0.09655
          25     0.21167    -0.02970     0.00205    -0.00557    -0.00570    -0.00144
          26    -0.10960    -0.14811     0.03564     0.06253     0.01490     0.08759
          27    -0.07640     0.09626    -0.21251     0.15946    -0.17060    -0.08413

                    7           8           9          10          11          12
 
 P.Frequency      270.67      322.41      420.69      812.24      896.31     1072.18
 
           1    -0.00400    -0.02609    -0.01482     0.03256    -0.00108     0.09099
           2    -0.00269    -0.03388    -0.11429     0.00303    -0.14943    -0.05091
           3     0.00061    -0.00350    -0.03534    -0.02545    -0.01712     0.06927
           4    -0.04669     0.05322     0.05585     0.05262    -0.06368    -0.05729
           5    -0.00221    -0.00487    -0.02357     0.00141     0.03393     0.13600
           6     0.03787    -0.00306     0.09516    -0.03891    -0.08220    -0.01449
           7     0.04256    -0.01775    -0.02181    -0.01409     0.03389    -0.01410
           8    -0.00017    -0.00499     0.13932    -0.00405     0.08668    -0.02777
           9    -0.01951     0.04868    -0.04517     0.00511     0.05539    -0.01459
          10    -0.40889    -0.01415    -0.03711    -0.27952     0.06100    -0.05680
          11    -0.25570     0.01507    -0.31545     0.34821     0.09893    -0.21405
          12    -0.16876     0.00786    -0.07519    -0.06195     0.04643    -0.00125
          13     0.04241    -0.04410    -0.03607    -0.00455     0.03229     0.04583
          14     0.22377    -0.14491    -0.26172    -0.36107     0.06731    -0.41036
          15     0.45231    -0.03299    -0.09372     0.27338     0.10017     0.05956
          16     0.43159    -0.14024    -0.12887    -0.14248     0.18779    -0.12501
          17     0.02061     0.00992     0.08921     0.00539    -0.46841     0.17261
          18    -0.33631     0.02215    -0.20075     0.09607     0.23408    -0.05744
          19    -0.13185     0.11674     0.02386    -0.39220    -0.03147     0.08078
          20    -0.00774     0.01840    -0.07356     0.24305     0.16103     0.19661
          21     0.01220     0.02219     0.07689    -0.12823    -0.04380     0.02919
          22    -0.04365     0.05034     0.05258     0.03534    -0.04804    -0.08252
          23     0.00065    -0.00623    -0.05530    -0.27422     0.13611    -0.00855
          24     0.12439    -0.07727     0.09726     0.39911    -0.05016    -0.19393
          25     0.03851    -0.00987    -0.01683    -0.00715     0.03167    -0.03969
          26     0.07957     0.64831     0.04710     0.05000     0.00455    -0.30856
          27    -0.23232    -0.63641     0.20001     0.10686     0.01676    -0.25682

                   13          14          15          16          17          18
 
 P.Frequency     1088.23     1150.14     1297.71     1397.92     1426.83     1445.36
 
           1    -0.02598     0.00320     0.09016     0.02211    -0.02444    -0.01004
           2    -0.05685     0.00854     0.00432    -0.00668     0.08153     0.09481
           3     0.02920     0.09580    -0.04322     0.04256    -0.03812    -0.00754
           4     0.07116    -0.01369    -0.08631    -0.06755    -0.03375     0.02818
           5     0.13343    -0.01942    -0.01351    -0.06957     0.05185    -0.09714
           6     0.02748    -0.15352     0.02495    -0.00817     0.01283    -0.00735
           7    -0.04430     0.02096     0.01209     0.04046     0.03175    -0.02584
           8    -0.09166     0.02127    -0.01511    -0.01660    -0.01810     0.01484
           9    -0.07134     0.06140    -0.00246    -0.03574    -0.00952     0.00134
          10     0.12667     0.05734    -0.18274    -0.10751     0.12090     0.04056
          11    -0.13369    -0.36979     0.17615    -0.03897    -0.38054    -0.31417
          12     0.06562     0.04167    -0.09675    -0.00609    -0.05630    -0.05757
          13    -0.00004    -0.01512     0.05943     0.01349    -0.05615    -0.05553
          14     0.12091    -0.05305    -0.24460     0.07443    -0.29375    -0.33492
          15    -0.03119    -0.17163     0.15490    -0.10612     0.14180     0.00042
          16     0.11251    -0.00885    -0.15139    -0.09692     0.11927     0.17403
          17    -0.13097     0.22614     0.05024     0.14095    -0.29266    -0.19179
          18     0.02393    -0.17278     0.06965    -0.05258     0.29083     0.19248
          19    -0.14485    -0.27874     0.04265     0.10436     0.05305    -0.02978
          20     0.08706    -0.22007    -0.41968     0.64474    -0.14797     0.31326
          21    -0.05474    -0.26353    -0.00865     0.16783     0.01117     0.04492
          22     0.09300     0.00363    -0.03490    -0.07792    -0.09404     0.09996
          23     0.32638     0.04194     0.51889    -0.02622    -0.44160     0.49220
          24     0.23417     0.13462    -0.08377    -0.16723    -0.14603     0.12788
          25    -0.02210     0.03399     0.02923     0.06345     0.04594    -0.03522
          26     0.27309     0.16679     0.26823     0.37629     0.25563    -0.17236
          27     0.21956     0.14449     0.22115     0.32206     0.21080    -0.15207

                   19          20          21          22          23          24
 
 P.Frequency     1520.20     1523.58     1547.85     2993.57     3040.03     3089.66
 
           1    -0.03925    -0.02873     0.01446     0.00231    -0.02956    -0.05113
           2     0.00494    -0.00775     0.00265    -0.00287     0.04141    -0.02273
           3     0.02910    -0.03393     0.01671    -0.00617    -0.00670     0.00158
           4    -0.02317     0.01380     0.05050    -0.01024     0.00361     0.06154
           5     0.00307    -0.02798     0.00069    -0.01586    -0.00279    -0.00531
           6     0.01561     0.01803     0.06159     0.07147     0.00308    -0.01165
           7     0.00772     0.00415     0.00143     0.00103    -0.00002    -0.00096
           8    -0.00395     0.00303     0.00247     0.00167     0.00033     0.00082
           9    -0.00480     0.00335     0.00559     0.00093     0.00022     0.00073
          10     0.14571     0.54627    -0.31372    -0.01262    -0.13756     0.06670
          11     0.39568     0.00620     0.00023    -0.00557    -0.05923     0.03376
          12     0.13845     0.15820    -0.09114     0.03716     0.40753    -0.24788
          13    -0.08893     0.00450    -0.00025    -0.05166     0.70692     0.38182
          14    -0.45559    -0.02165     0.04103     0.00451    -0.07446    -0.04672
          15    -0.22255     0.54785    -0.30951    -0.00022    -0.03274    -0.01876
          16     0.56826    -0.11934     0.06584     0.02827    -0.22009     0.16229
          17    -0.00745     0.18175    -0.11736     0.03553    -0.35000     0.28168
          18    -0.39066    -0.16934     0.11707     0.03625    -0.29956     0.24535
          19     0.01673    -0.32681    -0.56468     0.28201     0.01241    -0.02132
          20    -0.02099     0.10710    -0.00162     0.14918     0.00911    -0.02101
          21     0.02596    -0.07541    -0.14329    -0.88750    -0.03778     0.10086
          22    -0.03187     0.00235     0.01668    -0.16966    -0.05681    -0.71314
          23    -0.01753     0.09414     0.02070     0.00980     0.00727     0.07561
          24    -0.06187    -0.34432    -0.57729     0.02277     0.00223     0.03206
          25     0.01086     0.00492    -0.00014     0.00179     0.00439     0.01493
          26     0.07332     0.00978    -0.02205     0.00295     0.00212    -0.00249
          27     0.05452     0.01915    -0.01686    -0.00073    -0.00002    -0.00334

                   25          26          27
 
 P.Frequency     3110.13     3128.61     3736.68
 
           1     0.05818     0.02259     0.00056
           2     0.02890    -0.01447    -0.00006
           3     0.02172    -0.08237     0.00017
           4     0.05186     0.01547    -0.00276
           5    -0.00406    -0.00046     0.00154
           6    -0.00833    -0.00922     0.00123
           7    -0.00134    -0.00024    -0.06029
           8     0.00045     0.00020     0.00147
           9     0.00026     0.00057     0.00092
          10    -0.00051    -0.24353    -0.00019
          11    -0.00198    -0.12703    -0.00019
          12     0.04568     0.76536    -0.00026
          13    -0.46686    -0.20196    -0.00255
          14     0.06118     0.02052    -0.00194
          15     0.02547    -0.00709     0.00066
          16    -0.23084     0.17658     0.00058
          17    -0.40153     0.28235     0.00234
          18    -0.33715     0.22740     0.00050
          19    -0.01986    -0.02675     0.00262
          20    -0.01753    -0.01849     0.00265
          21     0.08019     0.09021     0.00009
          22    -0.58175    -0.15587     0.01745
          23     0.06487     0.01885    -0.00386
          24     0.02620     0.00784    -0.00397
          25     0.01090     0.00208     0.96520
          26    -0.00807    -0.00161    -0.03991
          27    -0.00389    -0.00220    -0.02824



 ----------------------------------------------------------------------------
 Normal Eigenvalue ||    Projected Derivative Dipole Moments (debye/angs)
  Mode   [cm**-1]  ||      [d/dqX]             [d/dqY]           [d/dqZ]
 ------ ---------- || ------------------ ------------------ -----------------
    1       -0.000 ||      -0.141              -0.081            -0.056
    2       -0.000 ||       0.062              -0.015             0.095
    3        0.000 ||       0.008               0.073            -0.093
    4        0.000 ||       0.125              -0.047             0.217
    5        0.000 ||      -0.098              -0.016            -0.096
    6        0.000 ||       0.053               0.124            -0.110
    7      270.668 ||      -0.083               0.135            -0.277
    8      322.408 ||       0.186               1.208            -1.143
    9      420.686 ||       0.091              -0.441             0.481
   10      812.242 ||      -0.028               0.046             0.260
   11      896.311 ||      -0.162              -0.312            -0.293
   12     1072.181 ||       0.176              -0.078             0.258
   13     1088.225 ||       0.558               1.349             0.814
   14     1150.143 ||      -0.084              -0.094            -0.404
   15     1297.710 ||       0.070               0.414             0.291
   16     1397.923 ||      -0.054               0.094             0.192
   17     1426.834 ||       0.193               0.440             0.381
   18     1445.363 ||      -0.106              -0.940            -0.303
   19     1520.197 ||       0.332               0.156            -0.120
   20     1523.584 ||       0.131               0.080             0.127
   21     1547.853 ||       0.032              -0.022             0.041
   22     2993.569 ||       0.077              -0.243             1.324
   23     3040.027 ||      -0.366               0.530            -0.028
   24     3089.665 ||       0.173              -0.331            -0.092
   25     3110.128 ||       1.186               0.231             0.160
   26     3128.607 ||       0.375              -0.119            -0.847
   27     3736.681 ||       0.396               0.144             0.066
 ----------------------------------------------------------------------------



  
  
 ----------------------------------------------------------------------------
 Normal Eigenvalue ||           Projected Infra Red Intensities
  Mode   [cm**-1]  || [atomic units] [(debye/angs)**2] [(KM/mol)] [arbitrary]
 ------ ---------- || -------------- ----------------- ---------- -----------
    1       -0.000 ||    0.001279           0.030         1.247       0.584
    2       -0.000 ||    0.000567           0.013         0.553       0.259
    3        0.000 ||    0.000603           0.014         0.588       0.275
    4        0.000 ||    0.002803           0.065         2.733       1.279
    5        0.000 ||    0.000827           0.019         0.806       0.377
    6        0.000 ||    0.001321           0.030         1.287       0.603
    7      270.668 ||    0.004433           0.102         4.322       2.023
    8      322.408 ||    0.121314           2.799       118.263      55.367
    9      420.686 ||    0.018808           0.434        18.335       8.584
   10      812.242 ||    0.003048           0.070         2.972       1.391
   11      896.311 ||    0.009086           0.210         8.858       4.147
   12     1072.181 ||    0.004507           0.104         4.393       2.057
   13     1088.225 ||    0.121108           2.794       118.062      55.273
   14     1150.143 ||    0.007768           0.179         7.573       3.545
   15     1297.710 ||    0.011302           0.261        11.018       5.158
   16     1397.923 ||    0.002106           0.049         2.053       0.961
   17     1426.834 ||    0.016297           0.376        15.887       7.438
   18     1445.363 ||    0.042746           0.986        41.671      19.509
   19     1520.197 ||    0.006471           0.149         6.309       2.953
   20     1523.584 ||    0.001713           0.040         1.670       0.782
   21     1547.853 ||    0.000139           0.003         0.136       0.063
   22     2993.569 ||    0.078846           1.819        76.863      35.985
   23     3040.027 ||    0.018039           0.416        17.585       8.233
   24     3089.665 ||    0.006423           0.148         6.262       2.931
   25     3110.128 ||    0.064360           1.485        62.742      29.374
   26     3128.607 ||    0.037810           0.872        36.859      17.256
   27     3736.681 ||    0.007869           0.182         7.671       3.591
 ----------------------------------------------------------------------------



 vib:animation  F

 Task  times  cpu:       58.6s     wall:       60.9s
 
 
                                NWChem Input Module
                                -------------------
 
 
 Summary of allocated global arrays
-----------------------------------
  No active global arrays


MA_summarize_allocated_blocks: starting scan ...
MA_summarize_allocated_blocks: scan completed: 0 heap blocks, 0 stack blocks
MA usage statistics:

	allocation statistics:
					      heap	     stack
					      ----	     -----
	current number of blocks	         0	         0
	maximum number of blocks	        25	        54
	current total bytes		         0	         0
	maximum total bytes		   5199912	  89021144
	maximum total K-bytes		      5200	     89022
	maximum total M-bytes		         6	        90
 
 
                                     CITATION
                                     --------
                Please cite the following reference when publishing
                           results obtained with NWChem:
 
          E. Apra, E. J. Bylaska, W. A. de Jong, N. Govind, K. Kowalski,
       T. P. Straatsma, M. Valiev, H. J. J. van Dam, Y. Alexeev, J. Anchell,
       V. Anisimov, F. W. Aquino, R. Atta-Fynn, J. Autschbach, N. P. Bauman,
     J. C. Becca, D. E. Bernholdt, K. Bhaskaran-Nair, S. Bogatko, P. Borowski,
         J. Boschen, J. Brabec, A. Bruner, E. Cauet, Y. Chen, G. N. Chuev,
      C. J. Cramer, J. Daily, M. J. O. Deegan, T. H. Dunning Jr., M. Dupuis,
   K. G. Dyall, G. I. Fann, S. A. Fischer, A. Fonari, H. Fruchtl, L. Gagliardi,
      J. Garza, N. Gawande, S. Ghosh, K. Glaesemann, A. W. Gotz, J. Hammond,
       V. Helms, E. D. Hermes, K. Hirao, S. Hirata, M. Jacquelin, L. Jensen,
   B. G. Johnson, H. Jonsson, R. A. Kendall, M. Klemm, R. Kobayashi, V. Konkov,
      S. Krishnamoorthy, M. Krishnan, Z. Lin, R. D. Lins, R. J. Littlefield,
      A. J. Logsdail, K. Lopata, W. Ma, A. V. Marenich, J. Martin del Campo,
   D. Mejia-Rodriguez, J. E. Moore, J. M. Mullin, T. Nakajima, D. R. Nascimento,
    J. A. Nichols, P. J. Nichols, J. Nieplocha, A. Otero-de-la-Roza, B. Palmer,
    A. Panyala, T. Pirojsirikul, B. Peng, R. Peverati, J. Pittner, L. Pollack,
   R. M. Richard, P. Sadayappan, G. C. Schatz, W. A. Shelton, D. W. Silverstein,
   D. M. A. Smith, T. A. Soares, D. Song, M. Swart, H. L. Taylor, G. S. Thomas,
            V. Tipparaju, D. G. Truhlar, K. Tsemekhman, T. Van Voorhis,
      A. Vazquez-Mayagoitia, P. Verma, O. Villa, A. Vishnu, K. D. Vogiatzis,
        D. Wang, J. H. Weare, M. J. Williamson, T. L. Windus, K. Wolinski,
        A. T. Wong, Q. Wu, C. Yang, Q. Yu, M. Zacharias, Z. Zhang, Y. Zhao,
                                and R. J. Harrison
                        "NWChem: Past, present, and future
                         J. Chem. Phys. 152, 184102 (2020)
                               doi:10.1063/5.0004997
 
                                      AUTHORS
                                      -------
  E. Apra, E. J. Bylaska, N. Govind, K. Kowalski, M. Valiev, D. Mejia-Rodriguez,
       A. Kunitsa, N. P. Bauman, A. Panyala, W. A. de Jong, T. P. Straatsma,
   H. J. J. van Dam, D. Wang, T. L. Windus, J. Hammond, J. Autschbach, A. Woods,
    K. Bhaskaran-Nair, J. Brabec, K. Lopata, S. A. Fischer, S. Krishnamoorthy,
     M. Jacquelin, W. Ma, M. Klemm, O. Villa, Y. Chen, V. Anisimov, F. Aquino,
     S. Hirata, M. T. Hackler, E. Hermes, L. Jensen, J. E. Moore, J. C. Becca,
      V. Konjkov, T. Risthaus, M. Malagoli, A. Marenich, A. Otero-de-la-Roza,
        J. Mullin, P. Nichols, R. Peverati, J. Pittner, Y. Zhao, P.-D. Fan,
        A. Fonari, M. J. Williamson, R. J. Harrison, J. R. Rehr, M. Dupuis,
     D. Silverstein, D. M. A. Smith, J. Nieplocha, V. Tipparaju, M. Krishnan,
     B. E. Van Kuiken, A. Vazquez-Mayagoitia, M. Swart, Q. Wu, T. Van Voorhis,
     A. A. Auer, M. Nooijen, L. D. Crosby, E. Brown, G. Cisneros, G. I. Fann,
   H. Fruchtl, J. Garza, K. Hirao, R. A. Kendall, J. A. Nichols, K. Tsemekhman,
    K. Wolinski, J. Anchell, D. E. Bernholdt, P. Borowski, T. Clark, D. Clerc,
   H. Dachsel, M. J. O. Deegan, K. Dyall, D. Elwood, E. Glendening, M. Gutowski,
   A. C. Hess, J. Jaffe, B. G. Johnson, J. Ju, R. Kobayashi, R. Kutteh, Z. Lin,
   R. Littlefield, X. Long, B. Meng, T. Nakajima, S. Niu, L. Pollack, M. Rosing,
   K. Glaesemann, G. Sandrone, M. Stave, H. Taylor, G. Thomas, J. H. van Lenthe,
                               A. T. Wong, Z. Zhang.

 Total times  cpu:      223.7s     wall:      237.6s
