 argument  1 = ferrocene.nw
                                         
                                         
 
 
             Northwest Computational Chemistry Package (NWChem) 7.2.2
             --------------------------------------------------------
 
 
                    Environmental Molecular Sciences Laboratory
                       Pacific Northwest National Laboratory
                                Richland, WA 99352
 
                              Copyright (c) 1994-2022
                       Pacific Northwest National Laboratory
                            Battelle Memorial Institute
 
             NWChem is an open-source computational chemistry package
                        distributed under the terms of the
                      Educational Community License (ECL) 2.0
             A copy of the license is included with this distribution
                              in the LICENSE.TXT file
 
                                  ACKNOWLEDGMENT
                                  --------------

            This software and its documentation were developed at the
            EMSL at Pacific Northwest National Laboratory, a multiprogram
            national laboratory, operated for the U.S. Department of Energy
            by Battelle under Contract Number DE-AC05-76RL01830. Support
            for this work was provided by the Department of Energy Office
            of Biological and Environmental Research, Office of Basic
            Energy Sciences, and the Office of Advanced Scientific Computing.


           Job information
           ---------------

    hostname        = charliebox
    program         = /apps/nwchem/bin/nwchem
    date            = Sun Oct 19 14:48:56 2025

    compiled        = Tue_Apr_23_01:04:59_2024
    source          = /apps/nwchem-7.2.2-release
    nwchem branch   = 7.2.2
    nwchem revision = N/A
    ga revision     = 5.8.0
    use scalapack   = T
    input           = ferrocene.nw
    prefix          = ferrocene_frag_guess.
    data base       = ./ferrocene_frag_guess.db
    status          = startup
    nproc           =       19
    time left       =     -1s



           Memory information
           ------------------

    heap     =   65535994 doubles =    500.0 Mbytes
    stack    =   65535999 doubles =    500.0 Mbytes
    global   =  131072000 doubles =   1000.0 Mbytes (distinct from heap & stack)
    total    =  262143993 doubles =   2000.0 Mbytes
    verify   = yes
    hardfail = no 


           Directory information
           ---------------------
 
  0 permanent = .
  0 scratch   = .
 
 
 
 
                                NWChem Input Module
                                -------------------
 
 
          Ferrocene via fragment MOs: Fe only -> Cp rings -> full complex
          ---------------------------------------------------------------

 Scaling coordinates for geometry "fe_only" by  1.889725989
 (inverse scale =  0.529177249)

 
 
                             Geometry "fe_only" -> ""
                             ------------------------
 
 Output coordinates in angstroms (scale by  1.889725989 to convert to a.u.)
 
  No.       Tag          Charge          X              Y              Z
 ---- ---------------- ---------- -------------- -------------- --------------
    1 Fe                  26.0000     0.00000000     0.00000000     0.00000000
 
      Atomic Mass 
      ----------- 
 
      Fe                55.934900
 

 Effective nuclear repulsion energy (a.u.)       0.0000000000

            Nuclear Dipole moment (a.u.) 
            ----------------------------
        X                 Y               Z
 ---------------- ---------------- ----------------
     0.0000000000     0.0000000000     0.0000000000
 
 
            XYZ format geometry
            -------------------
     1
 fe_only
 Fe                    0.00000000     0.00000000     0.00000000
 

 Scaling coordinates for geometry "cp2" by  1.889725989
 (inverse scale =  0.529177249)

 D5H symmetry detected

          ------
          auto-z
          ------
  autoz: The atoms group into disjoint clusters
 cluster   1:    1    2    3    4    5    6    7    8    9   10 
 cluster   2:   11   12   13   14   15   16   17   18   19   20 
 Connecting clusters   1   2 via atoms    1   11 r = 3.30
  autoz: regenerating connections with new bonds
  no constraints, skipping   0.000000000000000E+000
  no constraints, skipping   0.000000000000000E+000
 
 
                            Geometry "cp2" -> "       "
                            ---------------------------
 
 Output coordinates in angstroms (scale by  1.889725989 to convert to a.u.)
 
  No.       Tag          Charge          X              Y              Z
 ---- ---------------- ---------- -------------- -------------- --------------
    1 C                    6.0000     0.00000000     1.25000013     1.65000000
    2 C                    6.0000    -1.18882077     0.38627128     1.65000000
    3 C                    6.0000    -0.73473164    -1.01127135     1.65000000
    4 C                    6.0000     0.73473164    -1.01127135     1.65000000
    5 C                    6.0000     1.18882077     0.38627128     1.65000000
    6 H                    1.0000     0.00000000     2.35000002     1.65000000
    7 H                    1.0000    -2.23498283     0.72618994     1.65000000
    8 H                    1.0000    -1.38129535    -1.90118995     1.65000000
    9 H                    1.0000     1.38129535    -1.90118995     1.65000000
   10 H                    1.0000     2.23498283     0.72618994     1.65000000
   11 C                    6.0000     0.00000000     1.25000013    -1.65000000
   12 C                    6.0000    -1.18882077     0.38627128    -1.65000000
   13 C                    6.0000    -0.73473164    -1.01127135    -1.65000000
   14 C                    6.0000     0.73473164    -1.01127135    -1.65000000
   15 C                    6.0000     1.18882077     0.38627128    -1.65000000
   16 H                    1.0000     0.00000000     2.35000002    -1.65000000
   17 H                    1.0000    -2.23498283     0.72618994    -1.65000000
   18 H                    1.0000    -1.38129535    -1.90118995    -1.65000000
   19 H                    1.0000     1.38129535    -1.90118995    -1.65000000
   20 H                    1.0000     2.23498283     0.72618994    -1.65000000
 
      Atomic Mass 
      ----------- 
 
      C                 12.000000
      H                  1.007825
 

 Effective nuclear repulsion energy (a.u.)     457.5136670660

            Nuclear Dipole moment (a.u.) 
            ----------------------------
        X                 Y               Z
 ---------------- ---------------- ----------------
     0.0000000000    -0.0000000000     0.0000000000
 
      Symmetry information
      --------------------
 
 Group name             D5h       
 Group number             29
 Group order              20
 No. of unique centers     2
 
      Symmetry unique atoms
 
     1    6
 


                                Z-matrix (autoz)
                                -------- 

 Units are Angstrom for bonds and degrees for angles
 
      Type          Name      I     J     K     L     M      Value
      ----------- --------  ----- ----- ----- ----- ----- ----------
    1 Stretch                  1    11                       3.30000
    2 Stretch                  1     2                       1.46946
    3 Stretch                  1     5                       1.46946
    4 Stretch                  1     6                       1.10000
    5 Stretch                  2     3                       1.46946
    6 Stretch                  2     7                       1.10000
    7 Stretch                  3     4                       1.46946
    8 Stretch                  3     8                       1.10000
    9 Stretch                  4     5                       1.46946
   10 Stretch                  4     9                       1.10000
   11 Stretch                  5    10                       1.10000
   12 Stretch                 11    12                       1.46946
   13 Stretch                 11    15                       1.46946
   14 Stretch                 11    16                       1.10000
   15 Stretch                 12    13                       1.46946
   16 Stretch                 12    17                       1.10000
   17 Stretch                 13    14                       1.46946
   18 Stretch                 13    18                       1.10000
   19 Stretch                 14    15                       1.46946
   20 Stretch                 14    19                       1.10000
   21 Stretch                 15    20                       1.10000
   22 Bend                     1    11    12                90.00000
   23 Bend                     1    11    15                90.00000
   24 Bend                     1    11    16                90.00000
   25 Bend                     1     2     3               108.00000
   26 Bend                     1     2     7               126.00000
   27 Bend                     1     5     4               108.00000
   28 Bend                     1     5    10               126.00000
   29 Bend                     2     1    11                90.00000
   30 Bend                     2     1     5               108.00000
   31 Bend                     2     1     6               126.00000
   32 Bend                     2     3     4               108.00000
   33 Bend                     2     3     8               126.00000
   34 Bend                     3     2     7               126.00000
   35 Bend                     3     4     5               108.00000
   36 Bend                     3     4     9               126.00000
   37 Bend                     4     3     8               126.00000
   38 Bend                     4     5    10               126.00000
   39 Bend                     5     1    11                90.00000
   40 Bend                     5     1     6               126.00000
   41 Bend                     5     4     9               126.00000
   42 Bend                     6     1    11                90.00000
   43 Bend                    11    12    13               108.00000
   44 Bend                    11    12    17               126.00000
   45 Bend                    11    15    14               108.00000
   46 Bend                    11    15    20               126.00000
   47 Bend                    12    11    15               108.00000
   48 Bend                    12    11    16               126.00000
   49 Bend                    12    13    14               108.00000
   50 Bend                    12    13    18               126.00000
   51 Bend                    13    12    17               126.00000
   52 Bend                    13    14    15               108.00000
   53 Bend                    13    14    19               126.00000
   54 Bend                    14    13    18               126.00000
   55 Bend                    14    15    20               126.00000
   56 Bend                    15    11    16               126.00000
   57 Bend                    15    14    19               126.00000
   58 Torsion                  1    11    12    13         -90.00000
   59 Torsion                  1    11    12    17          90.00000
   60 Torsion                  1    11    15    14          90.00000
   61 Torsion                  1    11    15    20         -90.00000
   62 Torsion                  1     2     3     4           0.00000
   63 Torsion                  1     2     3     8         180.00000
   64 Torsion                  1     5     4     3           0.00000
   65 Torsion                  1     5     4     9         180.00000
   66 Torsion                  2     1    11    12           0.00000
   67 Torsion                  2     1    11    15        -108.00000
   68 Torsion                  2     1    11    16         126.00000
   69 Torsion                  2     1     5     4           0.00000
   70 Torsion                  2     1     5    10         180.00000
   71 Torsion                  2     3     4     5           0.00000
   72 Torsion                  2     3     4     9         180.00000
   73 Torsion                  3     2     1    11          90.00000
   74 Torsion                  3     2     1     5           0.00000
   75 Torsion                  3     2     1     6         180.00000
   76 Torsion                  3     4     5    10         180.00000
   77 Torsion                  4     3     2     7         180.00000
   78 Torsion                  4     5     1    11         -90.00000
   79 Torsion                  4     5     1     6         180.00000
   80 Torsion                  5     1    11    12         108.00000
   81 Torsion                  5     1    11    15           0.00000
   82 Torsion                  5     1    11    16        -126.00000
   83 Torsion                  5     1     2     7         180.00000
   84 Torsion                  5     4     3     8         180.00000
   85 Torsion                  6     1    11    12        -126.00000
   86 Torsion                  6     1    11    15         126.00000
   87 Torsion                  6     1    11    16           0.00000
   88 Torsion                  6     1     2     7           0.00000
   89 Torsion                  6     1     5    10           0.00000
   90 Torsion                  7     2     1    11         -90.00000
   91 Torsion                  7     2     3     8           0.00000
   92 Torsion                  8     3     4     9           0.00000
   93 Torsion                  9     4     5    10           0.00000
   94 Torsion                 10     5     1    11          90.00000
   95 Torsion                 11    12    13    14           0.00000
   96 Torsion                 11    12    13    18         180.00000
   97 Torsion                 11    15    14    13           0.00000
   98 Torsion                 11    15    14    19         180.00000
   99 Torsion                 12    11    15    14           0.00000
  100 Torsion                 12    11    15    20         180.00000
  101 Torsion                 12    13    14    15           0.00000
  102 Torsion                 12    13    14    19         180.00000
  103 Torsion                 13    12    11    15           0.00000
  104 Torsion                 13    12    11    16         180.00000
  105 Torsion                 13    14    15    20         180.00000
  106 Torsion                 14    13    12    17         180.00000
  107 Torsion                 14    15    11    16         180.00000
  108 Torsion                 15    11    12    17         180.00000
  109 Torsion                 15    14    13    18         180.00000
  110 Torsion                 16    11    12    17           0.00000
  111 Torsion                 16    11    15    20           0.00000
  112 Torsion                 17    12    13    18           0.00000
  113 Torsion                 18    13    14    19           0.00000
  114 Torsion                 19    14    15    20           0.00000
 
 
            XYZ format geometry
            -------------------
    20
 cp2
 C                     0.00000000     1.25000013     1.65000000
 C                    -1.18882077     0.38627128     1.65000000
 C                    -0.73473164    -1.01127135     1.65000000
 C                     0.73473164    -1.01127135     1.65000000
 C                     1.18882077     0.38627128     1.65000000
 H                     0.00000000     2.35000002     1.65000000
 H                    -2.23498283     0.72618994     1.65000000
 H                    -1.38129535    -1.90118995     1.65000000
 H                     1.38129535    -1.90118995     1.65000000
 H                     2.23498283     0.72618994     1.65000000
 C                     0.00000000     1.25000013    -1.65000000
 C                    -1.18882077     0.38627128    -1.65000000
 C                    -0.73473164    -1.01127135    -1.65000000
 C                     0.73473164    -1.01127135    -1.65000000
 C                     1.18882077     0.38627128    -1.65000000
 H                     0.00000000     2.35000002    -1.65000000
 H                    -2.23498283     0.72618994    -1.65000000
 H                    -1.38129535    -1.90118995    -1.65000000
 H                     1.38129535    -1.90118995    -1.65000000
 H                     2.23498283     0.72618994    -1.65000000
 
 ==============================================================================
                                internuclear distances
 ------------------------------------------------------------------------------
       center one      |      center two      | atomic units |  angstroms
 ------------------------------------------------------------------------------
    2 C                |   1 C                |     2.77688  |     1.46946
    3 C                |   2 C                |     2.77688  |     1.46946
    4 C                |   3 C                |     2.77688  |     1.46946
    5 C                |   1 C                |     2.77688  |     1.46946
    5 C                |   4 C                |     2.77688  |     1.46946
    6 H                |   1 C                |     2.07870  |     1.10000
    7 H                |   2 C                |     2.07870  |     1.10000
    8 H                |   3 C                |     2.07870  |     1.10000
    9 H                |   4 C                |     2.07870  |     1.10000
   10 H                |   5 C                |     2.07870  |     1.10000
   12 C                |  11 C                |     2.77688  |     1.46946
   13 C                |  12 C                |     2.77688  |     1.46946
   14 C                |  13 C                |     2.77688  |     1.46946
   15 C                |  11 C                |     2.77688  |     1.46946
   15 C                |  14 C                |     2.77688  |     1.46946
   16 H                |  11 C                |     2.07870  |     1.10000
   17 H                |  12 C                |     2.07870  |     1.10000
   18 H                |  13 C                |     2.07870  |     1.10000
   19 H                |  14 C                |     2.07870  |     1.10000
   20 H                |  15 C                |     2.07870  |     1.10000
 ------------------------------------------------------------------------------
                         number of included internuclear distances:         20
 ==============================================================================



 ==============================================================================
                                 internuclear angles
 ------------------------------------------------------------------------------
        center 1       |       center 2       |       center 3       |  degrees
 ------------------------------------------------------------------------------
    2 C                |   1 C                |   5 C                |   108.00
    2 C                |   1 C                |   6 H                |   126.00
    5 C                |   1 C                |   6 H                |   126.00
    1 C                |   2 C                |   3 C                |   108.00
    1 C                |   2 C                |   7 H                |   126.00
    3 C                |   2 C                |   7 H                |   126.00
    2 C                |   3 C                |   4 C                |   108.00
    2 C                |   3 C                |   8 H                |   126.00
    4 C                |   3 C                |   8 H                |   126.00
    3 C                |   4 C                |   5 C                |   108.00
    3 C                |   4 C                |   9 H                |   126.00
    5 C                |   4 C                |   9 H                |   126.00
    1 C                |   5 C                |   4 C                |   108.00
    1 C                |   5 C                |  10 H                |   126.00
    4 C                |   5 C                |  10 H                |   126.00
   12 C                |  11 C                |  15 C                |   108.00
   12 C                |  11 C                |  16 H                |   126.00
   15 C                |  11 C                |  16 H                |   126.00
   11 C                |  12 C                |  13 C                |   108.00
   11 C                |  12 C                |  17 H                |   126.00
   13 C                |  12 C                |  17 H                |   126.00
   12 C                |  13 C                |  14 C                |   108.00
   12 C                |  13 C                |  18 H                |   126.00
   14 C                |  13 C                |  18 H                |   126.00
   13 C                |  14 C                |  15 C                |   108.00
   13 C                |  14 C                |  19 H                |   126.00
   15 C                |  14 C                |  19 H                |   126.00
   11 C                |  15 C                |  14 C                |   108.00
   11 C                |  15 C                |  20 H                |   126.00
   14 C                |  15 C                |  20 H                |   126.00
 ------------------------------------------------------------------------------
                            number of included internuclear angles:         30
 ==============================================================================




 Scaling coordinates for geometry "full_fc" by  1.889725989
 (inverse scale =  0.529177249)

 D5H symmetry detected

          ------
          auto-z
          ------
      warning. autoz generated   10 bonds for atom    1
  no constraints, skipping   0.000000000000000E+000
  no constraints, skipping   0.000000000000000E+000
 
 
                            Geometry "full_fc" -> "   "
                            ---------------------------
 
 Output coordinates in angstroms (scale by  1.889725989 to convert to a.u.)
 
  No.       Tag          Charge          X              Y              Z
 ---- ---------------- ---------- -------------- -------------- --------------
    1 Fe                  26.0000     0.00000000    -0.00000000     0.00000000
    2 C                    6.0000     0.00000000     1.25000013     1.65000000
    3 C                    6.0000    -1.18882077     0.38627128     1.65000000
    4 C                    6.0000    -0.73473164    -1.01127135     1.65000000
    5 C                    6.0000     0.73473164    -1.01127135     1.65000000
    6 C                    6.0000     1.18882077     0.38627128     1.65000000
    7 H                    1.0000     0.00000000     2.35000002     1.65000000
    8 H                    1.0000    -2.23498283     0.72618994     1.65000000
    9 H                    1.0000    -1.38129535    -1.90118995     1.65000000
   10 H                    1.0000     1.38129535    -1.90118995     1.65000000
   11 H                    1.0000     2.23498283     0.72618994     1.65000000
   12 C                    6.0000     0.00000000     1.25000013    -1.65000000
   13 C                    6.0000    -1.18882077     0.38627128    -1.65000000
   14 C                    6.0000    -0.73473164    -1.01127135    -1.65000000
   15 C                    6.0000     0.73473164    -1.01127135    -1.65000000
   16 C                    6.0000     1.18882077     0.38627128    -1.65000000
   17 H                    1.0000     0.00000000     2.35000002    -1.65000000
   18 H                    1.0000    -2.23498283     0.72618994    -1.65000000
   19 H                    1.0000    -1.38129535    -1.90118995    -1.65000000
   20 H                    1.0000     1.38129535    -1.90118995    -1.65000000
   21 H                    1.0000     2.23498283     0.72618994    -1.65000000
 
      Atomic Mass 
      ----------- 
 
      Fe                55.934900
      C                 12.000000
      H                  1.007825
 

 Effective nuclear repulsion energy (a.u.)     904.2250924216

            Nuclear Dipole moment (a.u.) 
            ----------------------------
        X                 Y               Z
 ---------------- ---------------- ----------------
     0.0000000000     0.0000000000     0.0000000000
 
      Symmetry information
      --------------------
 
 Group name             D5h       
 Group number             29
 Group order              20
 No. of unique centers     3
 
      Symmetry unique atoms
 
     1    2    7
 


                                Z-matrix (autoz)
                                -------- 

 Units are Angstrom for bonds and degrees for angles
 
      Type          Name      I     J     K     L     M      Value
      ----------- --------  ----- ----- ----- ----- ----- ----------
    1 Stretch                  1     2                       2.07002
    2 Stretch                  1     3                       2.07002
    3 Stretch                  1     4                       2.07002
    4 Stretch                  1     5                       2.07002
    5 Stretch                  1     6                       2.07002
    6 Stretch                  1    12                       2.07002
    7 Stretch                  1    13                       2.07002
    8 Stretch                  1    14                       2.07002
    9 Stretch                  1    15                       2.07002
   10 Stretch                  1    16                       2.07002
   11 Stretch                  2     3                       1.46946
   12 Stretch                  2     6                       1.46946
   13 Stretch                  2     7                       1.10000
   14 Stretch                  3     4                       1.46946
   15 Stretch                  3     8                       1.10000
   16 Stretch                  4     5                       1.46946
   17 Stretch                  4     9                       1.10000
   18 Stretch                  5     6                       1.46946
   19 Stretch                  5    10                       1.10000
   20 Stretch                  6    11                       1.10000
   21 Stretch                 12    13                       1.46946
   22 Stretch                 12    16                       1.46946
   23 Stretch                 12    17                       1.10000
   24 Stretch                 13    14                       1.46946
   25 Stretch                 13    18                       1.10000
   26 Stretch                 14    15                       1.46946
   27 Stretch                 14    19                       1.10000
   28 Stretch                 15    16                       1.46946
   29 Stretch                 15    20                       1.10000
   30 Stretch                 16    21                       1.10000
   31 Bend                     1     2     3                69.21031
   32 Bend                     1     2     6                69.21031
   33 Bend                     1     2     7               127.14669
   34 Bend                     1     3     2                69.21031
   35 Bend                     1     3     4                69.21031
   36 Bend                     1     3     8               127.14669
   37 Bend                     1     4     3                69.21031
   38 Bend                     1     4     5                69.21031
   39 Bend                     1     4     9               127.14669
   40 Bend                     1     5     4                69.21031
   41 Bend                     1     5     6                69.21031
   42 Bend                     1     5    10               127.14669
   43 Bend                     1     6     2                69.21031
   44 Bend                     1     6     5                69.21031
   45 Bend                     1     6    11               127.14669
   46 Bend                     1    12    13                69.21031
   47 Bend                     1    12    16                69.21031
   48 Bend                     1    12    17               127.14669
   49 Bend                     1    13    12                69.21031
   50 Bend                     1    13    14                69.21031
   51 Bend                     1    13    18               127.14669
   52 Bend                     1    14    13                69.21031
   53 Bend                     1    14    15                69.21031
   54 Bend                     1    14    19               127.14669
   55 Bend                     1    15    14                69.21031
   56 Bend                     1    15    16                69.21031
   57 Bend                     1    15    20               127.14669
   58 Bend                     1    16    12                69.21031
   59 Bend                     1    16    15                69.21031
   60 Bend                     1    16    21               127.14669
   61 Bend                     2     1     3                41.57937
   62 Bend                     2     1     4                70.10165
   63 Bend                     2     1     5                70.10165
   64 Bend                     2     1     6                41.57937
   65 Bend                     2     1    12               105.70662
   66 Bend                     2     1    13               121.51183
   67 Bend                     2     1    14               158.49087
   68 Bend                     2     1    15               158.49087
   69 Bend                     2     1    16               121.51183
   70 Bend                     2     3     4               108.00000
   71 Bend                     2     3     8               126.00000
   72 Bend                     2     6     5               108.00000
   73 Bend                     2     6    11               126.00000
   74 Bend                     3     1     4                41.57937
   75 Bend                     3     1     5                70.10165
   76 Bend                     3     1     6                70.10165
   77 Bend                     3     1    12               121.51183
   78 Bend                     3     1    13               105.70662
   79 Bend                     3     1    14               121.51183
   80 Bend                     3     1    15               158.49087
   81 Bend                     3     1    16               158.49087
   82 Bend                     3     2     6               108.00000
   83 Bend                     3     2     7               126.00000
   84 Bend                     3     4     5               108.00000
   85 Bend                     3     4     9               126.00000
   86 Bend                     4     1     5                41.57937
   87 Bend                     4     1     6                70.10165
   88 Bend                     4     1    12               158.49087
   89 Bend                     4     1    13               121.51183
   90 Bend                     4     1    14               105.70662
   91 Bend                     4     1    15               121.51183
   92 Bend                     4     1    16               158.49087
   93 Bend                     4     3     8               126.00000
   94 Bend                     4     5     6               108.00000
   95 Bend                     4     5    10               126.00000
   96 Bend                     5     1     6                41.57937
   97 Bend                     5     1    12               158.49087
   98 Bend                     5     1    13               158.49087
   99 Bend                     5     1    14               121.51183
  100 Bend                     5     1    15               105.70662
  101 Bend                     5     1    16               121.51183
  102 Bend                     5     4     9               126.00000
  103 Bend                     5     6    11               126.00000
  104 Bend                     6     1    12               121.51183
  105 Bend                     6     1    13               158.49087
  106 Bend                     6     1    14               158.49087
  107 Bend                     6     1    15               121.51183
  108 Bend                     6     1    16               105.70662
  109 Bend                     6     2     7               126.00000
  110 Bend                     6     5    10               126.00000
  111 Bend                    12     1    13                41.57937
  112 Bend                    12     1    14                70.10165
  113 Bend                    12     1    15                70.10165
  114 Bend                    12     1    16                41.57937
  115 Bend                    12    13    14               108.00000
  116 Bend                    12    13    18               126.00000
  117 Bend                    12    16    15               108.00000
  118 Bend                    12    16    21               126.00000
  119 Bend                    13     1    14                41.57937
  120 Bend                    13     1    15                70.10165
  121 Bend                    13     1    16                70.10165
  122 Bend                    13    12    16               108.00000
  123 Bend                    13    12    17               126.00000
  124 Bend                    13    14    15               108.00000
  125 Bend                    13    14    19               126.00000
  126 Bend                    14     1    15                41.57937
  127 Bend                    14     1    16                70.10165
  128 Bend                    14    13    18               126.00000
  129 Bend                    14    15    16               108.00000
  130 Bend                    14    15    20               126.00000
  131 Bend                    15     1    16                41.57937
  132 Bend                    15    14    19               126.00000
  133 Bend                    15    16    21               126.00000
  134 Bend                    16    12    17               126.00000
  135 Bend                    16    15    20               126.00000
  136 Torsion                  1     2     3     4          58.49621
  137 Torsion                  1     2     3     8        -121.50379
  138 Torsion                  1     2     6     5         -58.49621
  139 Torsion                  1     2     6    11         121.50379
  140 Torsion                  1     3     2     6         -58.49621
  141 Torsion                  1     3     2     7         121.50379
  142 Torsion                  1     3     4     5          58.49621
  143 Torsion                  1     3     4     9        -121.50379
  144 Torsion                  1     4     3     2         -58.49621
  145 Torsion                  1     4     3     8         121.50379
  146 Torsion                  1     4     5     6          58.49621
  147 Torsion                  1     4     5    10        -121.50379
  148 Torsion                  1     5     4     3         -58.49621
  149 Torsion                  1     5     4     9         121.50379
  150 Torsion                  1     5     6     2          58.49621
  151 Torsion                  1     5     6    11        -121.50379
  152 Torsion                  1     6     2     3          58.49621
  153 Torsion                  1     6     2     7        -121.50379
  154 Torsion                  1     6     5     4         -58.49621
  155 Torsion                  1     6     5    10         121.50379
  156 Torsion                  1    12    13    14         -58.49621
  157 Torsion                  1    12    13    18         121.50379
  158 Torsion                  1    12    16    15          58.49621
  159 Torsion                  1    12    16    21        -121.50379
  160 Torsion                  1    13    12    16          58.49621
  161 Torsion                  1    13    12    17        -121.50379
  162 Torsion                  1    13    14    15         -58.49621
  163 Torsion                  1    13    14    19         121.50379
  164 Torsion                  1    14    13    12          58.49621
  165 Torsion                  1    14    13    18        -121.50379
  166 Torsion                  1    14    15    16         -58.49621
  167 Torsion                  1    14    15    20         121.50379
  168 Torsion                  1    15    14    13          58.49621
  169 Torsion                  1    15    14    19        -121.50379
  170 Torsion                  1    15    16    12         -58.49621
  171 Torsion                  1    15    16    21         121.50379
  172 Torsion                  1    16    12    13         -58.49621
  173 Torsion                  1    16    12    17         121.50379
  174 Torsion                  1    16    15    14          58.49621
  175 Torsion                  1    16    15    20        -121.50379
  176 Torsion                  2     1     3     4        -119.84791
  177 Torsion                  2     1     3     8         120.07605
  178 Torsion                  2     1     4     3          37.74661
  179 Torsion                  2     1     4     5         -82.10130
  180 Torsion                  2     1     4     9         157.82265
  181 Torsion                  2     1     5     4          82.10130
  182 Torsion                  2     1     5     6         -37.74661
  183 Torsion                  2     1     5    10        -157.82265
  184 Torsion                  2     1     6     5         119.84791
  185 Torsion                  2     1     6    11        -120.07605
  186 Torsion                  2     1    12    13        -120.07605
  187 Torsion                  2     1    12    16         120.07605
  188 Torsion                  2     1    12    17           0.00000
  189 Torsion                  2     1    13    12          77.72715
  190 Torsion                  2     1    13    14        -162.42495
  191 Torsion                  2     1    13    18         -42.34890
  192 Torsion                  2     1    14    13          44.59610
  193 Torsion                  2     1    14    15         164.44400
  194 Torsion                  2     1    14    19         -75.47995
  195 Torsion                  2     1    15    14        -164.44400
  196 Torsion                  2     1    15    16         -44.59610
  197 Torsion                  2     1    15    20          75.47995
  198 Torsion                  2     1    16    12         -77.72715
  199 Torsion                  2     1    16    15         162.42495
  200 Torsion                  2     1    16    21          42.34890
  201 Torsion                  2     3     1     4         119.84791
  202 Torsion                  2     3     1     5          82.10130
  203 Torsion                  2     3     1     6          37.74661
  204 Torsion                  2     3     1    12         -77.72715
  205 Torsion                  2     3     1    13        -120.07605
  206 Torsion                  2     3     1    14        -162.42495
  207 Torsion                  2     3     1    15         164.44400
  208 Torsion                  2     3     1    16         -44.59610
  209 Torsion                  2     3     4     5           0.00000
  210 Torsion                  2     3     4     9         180.00000
  211 Torsion                  2     6     1     3         -37.74661
  212 Torsion                  2     6     1     4         -82.10130
  213 Torsion                  2     6     1     5        -119.84791
  214 Torsion                  2     6     1    12          77.72715
  215 Torsion                  2     6     1    13          44.59610
  216 Torsion                  2     6     1    14        -164.44400
  217 Torsion                  2     6     1    15         162.42495
  218 Torsion                  2     6     1    16         120.07605
  219 Torsion                  2     6     5     4           0.00000
  220 Torsion                  2     6     5    10         180.00000
  221 Torsion                  3     1     2     6         119.84791
  222 Torsion                  3     1     2     7        -120.07605
  223 Torsion                  3     1     4     5        -119.84791
  224 Torsion                  3     1     4     9         120.07605
  225 Torsion                  3     1     5     4          37.74661
  226 Torsion                  3     1     5     6         -82.10130
  227 Torsion                  3     1     5    10         157.82265
  228 Torsion                  3     1     6     5          82.10130
  229 Torsion                  3     1     6    11        -157.82265
  230 Torsion                  3     1    12    13         -77.72715
  231 Torsion                  3     1    12    16         162.42495
  232 Torsion                  3     1    12    17          42.34890
  233 Torsion                  3     1    13    12         120.07605
  234 Torsion                  3     1    13    14        -120.07605
  235 Torsion                  3     1    13    18           0.00000
  236 Torsion                  3     1    14    13          77.72715
  237 Torsion                  3     1    14    15        -162.42495
  238 Torsion                  3     1    14    19         -42.34890
  239 Torsion                  3     1    15    14          44.59610
  240 Torsion                  3     1    15    16         164.44400
  241 Torsion                  3     1    15    20         -75.47995
  242 Torsion                  3     1    16    12         -44.59610
  243 Torsion                  3     1    16    15        -164.44400
  244 Torsion                  3     1    16    21          75.47995
  245 Torsion                  3     2     1     4         -37.74661
  246 Torsion                  3     2     1     5         -82.10130
  247 Torsion                  3     2     1     6        -119.84791
  248 Torsion                  3     2     1    12         120.07605
  249 Torsion                  3     2     1    13          77.72715
  250 Torsion                  3     2     1    14          44.59610
  251 Torsion                  3     2     1    15        -164.44400
  252 Torsion                  3     2     1    16         162.42495
  253 Torsion                  3     2     6     5           0.00000
  254 Torsion                  3     2     6    11         180.00000
  255 Torsion                  3     4     1     5         119.84791
  256 Torsion                  3     4     1     6          82.10130
  257 Torsion                  3     4     1    12         -44.59610
  258 Torsion                  3     4     1    13         -77.72715
  259 Torsion                  3     4     1    14        -120.07605
  260 Torsion                  3     4     1    15        -162.42495
  261 Torsion                  3     4     1    16         164.44400
  262 Torsion                  3     4     5     6           0.00000
  263 Torsion                  3     4     5    10         180.00000
  264 Torsion                  4     1     2     6          82.10130
  265 Torsion                  4     1     2     7        -157.82265
  266 Torsion                  4     1     3     8        -120.07605
  267 Torsion                  4     1     5     6        -119.84791
  268 Torsion                  4     1     5    10         120.07605
  269 Torsion                  4     1     6     5          37.74661
  270 Torsion                  4     1     6    11         157.82265
  271 Torsion                  4     1    12    13         -44.59610
  272 Torsion                  4     1    12    16        -164.44400
  273 Torsion                  4     1    12    17          75.47995
  274 Torsion                  4     1    13    12         162.42495
  275 Torsion                  4     1    13    14         -77.72715
  276 Torsion                  4     1    13    18          42.34890
  277 Torsion                  4     1    14    13         120.07605
  278 Torsion                  4     1    14    15        -120.07605
  279 Torsion                  4     1    14    19           0.00000
  280 Torsion                  4     1    15    14          77.72715
  281 Torsion                  4     1    15    16        -162.42495
  282 Torsion                  4     1    15    20         -42.34890
  283 Torsion                  4     1    16    12         164.44400
  284 Torsion                  4     1    16    15          44.59610
  285 Torsion                  4     1    16    21         -75.47995
  286 Torsion                  4     3     1     5         -37.74661
  287 Torsion                  4     3     1     6         -82.10130
  288 Torsion                  4     3     1    12         162.42495
  289 Torsion                  4     3     1    13         120.07605
  290 Torsion                  4     3     1    14          77.72715
  291 Torsion                  4     3     1    15          44.59610
  292 Torsion                  4     3     1    16        -164.44400
  293 Torsion                  4     3     2     6           0.00000
  294 Torsion                  4     3     2     7         180.00000
  295 Torsion                  4     5     1     6         119.84791
  296 Torsion                  4     5     1    12         164.44400
  297 Torsion                  4     5     1    13         -44.59610
  298 Torsion                  4     5     1    14         -77.72715
  299 Torsion                  4     5     1    15        -120.07605
  300 Torsion                  4     5     1    16        -162.42495
  301 Torsion                  4     5     6    11         180.00000
  302 Torsion                  5     1     2     6          37.74661
  303 Torsion                  5     1     2     7         157.82265
  304 Torsion                  5     1     3     8        -157.82265
  305 Torsion                  5     1     4     9        -120.07605
  306 Torsion                  5     1     6    11         120.07605
  307 Torsion                  5     1    12    13         164.44400
  308 Torsion                  5     1    12    16          44.59610
  309 Torsion                  5     1    12    17         -75.47995
  310 Torsion                  5     1    13    12        -164.44400
  311 Torsion                  5     1    13    14         -44.59610
  312 Torsion                  5     1    13    18          75.47995
  313 Torsion                  5     1    14    13         162.42495
  314 Torsion                  5     1    14    15         -77.72715
  315 Torsion                  5     1    14    19          42.34890
  316 Torsion                  5     1    15    14         120.07605
  317 Torsion                  5     1    15    16        -120.07605
  318 Torsion                  5     1    15    20           0.00000
  319 Torsion                  5     1    16    12        -162.42495
  320 Torsion                  5     1    16    15          77.72715
  321 Torsion                  5     1    16    21         -42.34890
  322 Torsion                  5     4     1     6         -37.74661
  323 Torsion                  5     4     1    12        -164.44400
  324 Torsion                  5     4     1    13         162.42495
  325 Torsion                  5     4     1    14         120.07605
  326 Torsion                  5     4     1    15          77.72715
  327 Torsion                  5     4     1    16          44.59610
  328 Torsion                  5     4     3     8         180.00000
  329 Torsion                  5     6     1    12        -162.42495
  330 Torsion                  5     6     1    13         164.44400
  331 Torsion                  5     6     1    14         -44.59610
  332 Torsion                  5     6     1    15         -77.72715
  333 Torsion                  5     6     1    16        -120.07605
  334 Torsion                  5     6     2     7         180.00000
  335 Torsion                  6     1     2     7         120.07605
  336 Torsion                  6     1     3     8         157.82265
  337 Torsion                  6     1     4     9        -157.82265
  338 Torsion                  6     1     5    10        -120.07605
  339 Torsion                  6     1    12    13        -162.42495
  340 Torsion                  6     1    12    16          77.72715
  341 Torsion                  6     1    12    17         -42.34890
  342 Torsion                  6     1    13    12          44.59610
  343 Torsion                  6     1    13    14         164.44400
  344 Torsion                  6     1    13    18         -75.47995
  345 Torsion                  6     1    14    13        -164.44400
  346 Torsion                  6     1    14    15         -44.59610
  347 Torsion                  6     1    14    19          75.47995
  348 Torsion                  6     1    15    14         162.42495
  349 Torsion                  6     1    15    16         -77.72715
  350 Torsion                  6     1    15    20          42.34890
  351 Torsion                  6     1    16    12        -120.07605
  352 Torsion                  6     1    16    15         120.07605
  353 Torsion                  6     1    16    21           0.00000
  354 Torsion                  6     2     1    12        -120.07605
  355 Torsion                  6     2     1    13        -162.42495
  356 Torsion                  6     2     1    14         164.44400
  357 Torsion                  6     2     1    15         -44.59610
  358 Torsion                  6     2     1    16         -77.72715
  359 Torsion                  6     2     3     8         180.00000
  360 Torsion                  6     5     1    12          44.59610
  361 Torsion                  6     5     1    13        -164.44400
  362 Torsion                  6     5     1    14         162.42495
  363 Torsion                  6     5     1    15         120.07605
  364 Torsion                  6     5     1    16          77.72715
  365 Torsion                  6     5     4     9         180.00000
  366 Torsion                  7     2     1    12           0.00000
  367 Torsion                  7     2     1    13         -42.34890
  368 Torsion                  7     2     1    14         -75.47995
  369 Torsion                  7     2     1    15          75.47995
  370 Torsion                  7     2     1    16          42.34890
  371 Torsion                  7     2     3     8           0.00000
  372 Torsion                  7     2     6    11           0.00000
  373 Torsion                  8     3     1    12          42.34890
  374 Torsion                  8     3     1    13           0.00000
  375 Torsion                  8     3     1    14         -42.34890
  376 Torsion                  8     3     1    15         -75.47995
  377 Torsion                  8     3     1    16          75.47995
  378 Torsion                  8     3     4     9           0.00000
  379 Torsion                  9     4     1    12          75.47995
  380 Torsion                  9     4     1    13          42.34890
  381 Torsion                  9     4     1    14           0.00000
  382 Torsion                  9     4     1    15         -42.34890
  383 Torsion                  9     4     1    16         -75.47995
  384 Torsion                  9     4     5    10           0.00000
  385 Torsion                 10     5     1    12         -75.47995
  386 Torsion                 10     5     1    13          75.47995
  387 Torsion                 10     5     1    14          42.34890
  388 Torsion                 10     5     1    15           0.00000
  389 Torsion                 10     5     1    16         -42.34890
  390 Torsion                 10     5     6    11           0.00000
  391 Torsion                 11     6     1    12         -42.34890
  392 Torsion                 11     6     1    13         -75.47995
  393 Torsion                 11     6     1    14          75.47995
  394 Torsion                 11     6     1    15          42.34890
  395 Torsion                 11     6     1    16           0.00000
  396 Torsion                 12     1    13    14         119.84791
  397 Torsion                 12     1    13    18        -120.07605
  398 Torsion                 12     1    14    13         -37.74661
  399 Torsion                 12     1    14    15          82.10130
  400 Torsion                 12     1    14    19        -157.82265
  401 Torsion                 12     1    15    14         -82.10130
  402 Torsion                 12     1    15    16          37.74661
  403 Torsion                 12     1    15    20         157.82265
  404 Torsion                 12     1    16    15        -119.84791
  405 Torsion                 12     1    16    21         120.07605
  406 Torsion                 12    13     1    14        -119.84791
  407 Torsion                 12    13     1    15         -82.10130
  408 Torsion                 12    13     1    16         -37.74661
  409 Torsion                 12    13    14    15           0.00000
  410 Torsion                 12    13    14    19         180.00000
  411 Torsion                 12    16     1    13          37.74661
  412 Torsion                 12    16     1    14          82.10130
  413 Torsion                 12    16     1    15         119.84791
  414 Torsion                 12    16    15    14           0.00000
  415 Torsion                 12    16    15    20         180.00000
  416 Torsion                 13     1    12    16        -119.84791
  417 Torsion                 13     1    12    17         120.07605
  418 Torsion                 13     1    14    15         119.84791
  419 Torsion                 13     1    14    19        -120.07605
  420 Torsion                 13     1    15    14         -37.74661
  421 Torsion                 13     1    15    16          82.10130
  422 Torsion                 13     1    15    20        -157.82265
  423 Torsion                 13     1    16    15         -82.10130
  424 Torsion                 13     1    16    21         157.82265
  425 Torsion                 13    12     1    14          37.74661
  426 Torsion                 13    12     1    15          82.10130
  427 Torsion                 13    12     1    16         119.84791
  428 Torsion                 13    12    16    15           0.00000
  429 Torsion                 13    12    16    21         180.00000
  430 Torsion                 13    14     1    15        -119.84791
  431 Torsion                 13    14     1    16         -82.10130
  432 Torsion                 13    14    15    16           0.00000
  433 Torsion                 13    14    15    20         180.00000
  434 Torsion                 14     1    12    16         -82.10130
  435 Torsion                 14     1    12    17         157.82265
  436 Torsion                 14     1    13    18         120.07605
  437 Torsion                 14     1    15    16         119.84791
  438 Torsion                 14     1    15    20        -120.07605
  439 Torsion                 14     1    16    15         -37.74661
  440 Torsion                 14     1    16    21        -157.82265
  441 Torsion                 14    13     1    15          37.74661
  442 Torsion                 14    13     1    16          82.10130
  443 Torsion                 14    13    12    16           0.00000
  444 Torsion                 14    13    12    17         180.00000
  445 Torsion                 14    15     1    16        -119.84791
  446 Torsion                 14    15    16    21         180.00000
  447 Torsion                 15     1    12    16         -37.74661
  448 Torsion                 15     1    12    17        -157.82265
  449 Torsion                 15     1    13    18         157.82265
  450 Torsion                 15     1    14    19         120.07605
  451 Torsion                 15     1    16    21        -120.07605
  452 Torsion                 15    14     1    16          37.74661
  453 Torsion                 15    14    13    18         180.00000
  454 Torsion                 15    16    12    17         180.00000
  455 Torsion                 16     1    12    17        -120.07605
  456 Torsion                 16     1    13    18        -157.82265
  457 Torsion                 16     1    14    19         157.82265
  458 Torsion                 16     1    15    20         120.07605
  459 Torsion                 16    12    13    18         180.00000
  460 Torsion                 16    15    14    19         180.00000
  461 Torsion                 17    12    13    18           0.00000
  462 Torsion                 17    12    16    21           0.00000
  463 Torsion                 18    13    14    19           0.00000
  464 Torsion                 19    14    15    20           0.00000
  465 Torsion                 20    15    16    21           0.00000
 
 
            XYZ format geometry
            -------------------
    21
 full_fc
 Fe                    0.00000000    -0.00000000     0.00000000
 C                     0.00000000     1.25000013     1.65000000
 C                    -1.18882077     0.38627128     1.65000000
 C                    -0.73473164    -1.01127135     1.65000000
 C                     0.73473164    -1.01127135     1.65000000
 C                     1.18882077     0.38627128     1.65000000
 H                     0.00000000     2.35000002     1.65000000
 H                    -2.23498283     0.72618994     1.65000000
 H                    -1.38129535    -1.90118995     1.65000000
 H                     1.38129535    -1.90118995     1.65000000
 H                     2.23498283     0.72618994     1.65000000
 C                     0.00000000     1.25000013    -1.65000000
 C                    -1.18882077     0.38627128    -1.65000000
 C                    -0.73473164    -1.01127135    -1.65000000
 C                     0.73473164    -1.01127135    -1.65000000
 C                     1.18882077     0.38627128    -1.65000000
 H                     0.00000000     2.35000002    -1.65000000
 H                    -2.23498283     0.72618994    -1.65000000
 H                    -1.38129535    -1.90118995    -1.65000000
 H                     1.38129535    -1.90118995    -1.65000000
 H                     2.23498283     0.72618994    -1.65000000
 
 ==============================================================================
                                internuclear distances
 ------------------------------------------------------------------------------
       center one      |      center two      | atomic units |  angstroms
 ------------------------------------------------------------------------------
    2 C                |   1 Fe               |     3.91178  |     2.07002
    3 C                |   1 Fe               |     3.91178  |     2.07002
    3 C                |   2 C                |     2.77688  |     1.46946
    4 C                |   1 Fe               |     3.91178  |     2.07002
    4 C                |   3 C                |     2.77688  |     1.46946
    5 C                |   1 Fe               |     3.91178  |     2.07002
    5 C                |   4 C                |     2.77688  |     1.46946
    6 C                |   1 Fe               |     3.91178  |     2.07002
    6 C                |   2 C                |     2.77688  |     1.46946
    6 C                |   5 C                |     2.77688  |     1.46946
    7 H                |   2 C                |     2.07870  |     1.10000
    8 H                |   3 C                |     2.07870  |     1.10000
    9 H                |   4 C                |     2.07870  |     1.10000
   10 H                |   5 C                |     2.07870  |     1.10000
   11 H                |   6 C                |     2.07870  |     1.10000
   12 C                |   1 Fe               |     3.91178  |     2.07002
   13 C                |   1 Fe               |     3.91178  |     2.07002
   13 C                |  12 C                |     2.77688  |     1.46946
   14 C                |   1 Fe               |     3.91178  |     2.07002
   14 C                |  13 C                |     2.77688  |     1.46946
   15 C                |   1 Fe               |     3.91178  |     2.07002
   15 C                |  14 C                |     2.77688  |     1.46946
   16 C                |   1 Fe               |     3.91178  |     2.07002
   16 C                |  12 C                |     2.77688  |     1.46946
   16 C                |  15 C                |     2.77688  |     1.46946
   17 H                |  12 C                |     2.07870  |     1.10000
   18 H                |  13 C                |     2.07870  |     1.10000
   19 H                |  14 C                |     2.07870  |     1.10000
   20 H                |  15 C                |     2.07870  |     1.10000
   21 H                |  16 C                |     2.07870  |     1.10000
 ------------------------------------------------------------------------------
                         number of included internuclear distances:         30
 ==============================================================================



 ==============================================================================
                                 internuclear angles
 ------------------------------------------------------------------------------
        center 1       |       center 2       |       center 3       |  degrees
 ------------------------------------------------------------------------------
    2 C                |   1 Fe               |   3 C                |    41.58
    2 C                |   1 Fe               |   4 C                |    70.10
    2 C                |   1 Fe               |   5 C                |    70.10
    2 C                |   1 Fe               |   6 C                |    41.58
    2 C                |   1 Fe               |  12 C                |   105.71
    2 C                |   1 Fe               |  13 C                |   121.51
    2 C                |   1 Fe               |  14 C                |   158.49
    2 C                |   1 Fe               |  15 C                |   158.49
    2 C                |   1 Fe               |  16 C                |   121.51
    3 C                |   1 Fe               |   4 C                |    41.58
    3 C                |   1 Fe               |   5 C                |    70.10
    3 C                |   1 Fe               |   6 C                |    70.10
    3 C                |   1 Fe               |  12 C                |   121.51
    3 C                |   1 Fe               |  13 C                |   105.71
    3 C                |   1 Fe               |  14 C                |   121.51
    3 C                |   1 Fe               |  15 C                |   158.49
    3 C                |   1 Fe               |  16 C                |   158.49
    4 C                |   1 Fe               |   5 C                |    41.58
    4 C                |   1 Fe               |   6 C                |    70.10
    4 C                |   1 Fe               |  12 C                |   158.49
    4 C                |   1 Fe               |  13 C                |   121.51
    4 C                |   1 Fe               |  14 C                |   105.71
    4 C                |   1 Fe               |  15 C                |   121.51
    4 C                |   1 Fe               |  16 C                |   158.49
    5 C                |   1 Fe               |   6 C                |    41.58
    5 C                |   1 Fe               |  12 C                |   158.49
    5 C                |   1 Fe               |  13 C                |   158.49
    5 C                |   1 Fe               |  14 C                |   121.51
    5 C                |   1 Fe               |  15 C                |   105.71
    5 C                |   1 Fe               |  16 C                |   121.51
    6 C                |   1 Fe               |  12 C                |   121.51
    6 C                |   1 Fe               |  13 C                |   158.49
    6 C                |   1 Fe               |  14 C                |   158.49
    6 C                |   1 Fe               |  15 C                |   121.51
    6 C                |   1 Fe               |  16 C                |   105.71
   12 C                |   1 Fe               |  13 C                |    41.58
   12 C                |   1 Fe               |  14 C                |    70.10
   12 C                |   1 Fe               |  15 C                |    70.10
   12 C                |   1 Fe               |  16 C                |    41.58
   13 C                |   1 Fe               |  14 C                |    41.58
   13 C                |   1 Fe               |  15 C                |    70.10
   13 C                |   1 Fe               |  16 C                |    70.10
   14 C                |   1 Fe               |  15 C                |    41.58
   14 C                |   1 Fe               |  16 C                |    70.10
   15 C                |   1 Fe               |  16 C                |    41.58
    2 C                |   1 Fe               |   3 C                |    41.58
    2 C                |   1 Fe               |   6 C                |    41.58
    1 Fe               |   2 C                |   7 H                |   127.15
    3 C                |   2 C                |   6 C                |   108.00
    3 C                |   2 C                |   7 H                |   126.00
    6 C                |   2 C                |   7 H                |   126.00
    3 C                |   1 Fe               |   2 C                |    41.58
    3 C                |   1 Fe               |   4 C                |    41.58
    1 Fe               |   3 C                |   8 H                |   127.15
    2 C                |   3 C                |   4 C                |   108.00
    2 C                |   3 C                |   8 H                |   126.00
    4 C                |   3 C                |   8 H                |   126.00
    4 C                |   1 Fe               |   3 C                |    41.58
    4 C                |   1 Fe               |   5 C                |    41.58
    1 Fe               |   4 C                |   9 H                |   127.15
    3 C                |   4 C                |   5 C                |   108.00
    3 C                |   4 C                |   9 H                |   126.00
    5 C                |   4 C                |   9 H                |   126.00
    5 C                |   1 Fe               |   4 C                |    41.58
    5 C                |   1 Fe               |   6 C                |    41.58
    1 Fe               |   5 C                |  10 H                |   127.15
    4 C                |   5 C                |   6 C                |   108.00
    4 C                |   5 C                |  10 H                |   126.00
    6 C                |   5 C                |  10 H                |   126.00
    6 C                |   1 Fe               |   2 C                |    41.58
    6 C                |   1 Fe               |   5 C                |    41.58
    1 Fe               |   6 C                |  11 H                |   127.15
    2 C                |   6 C                |   5 C                |   108.00
    2 C                |   6 C                |  11 H                |   126.00
    5 C                |   6 C                |  11 H                |   126.00
   12 C                |   1 Fe               |  13 C                |    41.58
   12 C                |   1 Fe               |  16 C                |    41.58
    1 Fe               |  12 C                |  17 H                |   127.15
   13 C                |  12 C                |  16 C                |   108.00
   13 C                |  12 C                |  17 H                |   126.00
   16 C                |  12 C                |  17 H                |   126.00
   13 C                |   1 Fe               |  12 C                |    41.58
   13 C                |   1 Fe               |  14 C                |    41.58
    1 Fe               |  13 C                |  18 H                |   127.15
   12 C                |  13 C                |  14 C                |   108.00
   12 C                |  13 C                |  18 H                |   126.00
   14 C                |  13 C                |  18 H                |   126.00
   14 C                |   1 Fe               |  13 C                |    41.58
   14 C                |   1 Fe               |  15 C                |    41.58
    1 Fe               |  14 C                |  19 H                |   127.15
   13 C                |  14 C                |  15 C                |   108.00
   13 C                |  14 C                |  19 H                |   126.00
   15 C                |  14 C                |  19 H                |   126.00
   15 C                |   1 Fe               |  14 C                |    41.58
   15 C                |   1 Fe               |  16 C                |    41.58
    1 Fe               |  15 C                |  20 H                |   127.15
   14 C                |  15 C                |  16 C                |   108.00
   14 C                |  15 C                |  20 H                |   126.00
   16 C                |  15 C                |  20 H                |   126.00
   16 C                |   1 Fe               |  12 C                |    41.58
   16 C                |   1 Fe               |  15 C                |    41.58
    1 Fe               |  16 C                |  21 H                |   127.15
   12 C                |  16 C                |  15 C                |   108.00
   12 C                |  16 C                |  21 H                |   126.00
   15 C                |  16 C                |  21 H                |   126.00
 ------------------------------------------------------------------------------
                            number of included internuclear angles:        105
 ==============================================================================



  library name resolved from: environment
  library file name is: </apps/nwchem/data/libraries/>
  
                      Basis "ao basis" -> "" (spherical)
                      -----
  Fe (Iron)
  ---------
            Exponent  Coefficients 
       -------------- ---------------------------------------------------------
  1 S  6.09236406E+04  0.001430
  1 S  9.14788940E+03  0.010959
  1 S  2.08135059E+03  0.054333
  1 S  5.87559771E+02  0.188850
  1 S  1.91090440E+02  0.382531
  1 S  6.57327301E+01  0.293083
 
  2 S  1.27258919E+02 -0.109646
  2 S  1.48309130E+01  0.643876
  2 S  6.06533074E+00  0.454723
 
  3 S  1.04499437E+01 -0.225396
  3 S  1.72452280E+00  0.721644
  3 S  7.17721773E-01  0.449855
 
  4 S  9.14498283E-02  1.000000
 
  5 S  3.37066910E-02  1.000000
 
  6 P  7.73437510E+02  0.009433
  6 P  1.82151497E+02  0.070030
  6 P  5.75472728E+01  0.269937
  6 P  2.06149889E+01  0.527000
  6 P  7.63485579E+00  0.342841
 
  7 P  3.87193280E+00  0.339744
  7 P  1.49247241E+00  0.568426
  7 P  5.60612850E-01  0.236494
 
  8 P  1.34915000E-01  1.000000
 
  9 D  3.89681334E+01  0.027880
  9 D  1.08000671E+01  0.148583
  9 D  3.61364580E+00  0.369055
  9 D  1.21299679E+00  0.477451
 
 10 D  3.65243932E-01  1.000000
 
 11 F  1.59800000E+00  1.000000
 
  C (Carbon)
  ----------
            Exponent  Coefficients 
       -------------- ---------------------------------------------------------
  1 S  1.23840169E+03  0.005457
  1 S  1.86290050E+02  0.040638
  1 S  4.22511763E+01  0.180256
  1 S  1.16765579E+01  0.463151
  1 S  3.59305065E+00  0.440872
 
  2 S  4.02451474E-01  1.000000
 
  3 S  1.30901827E-01  1.000000
 
  4 P  9.46809706E+00  0.038388
  4 P  2.01035451E+00  0.211170
  4 P  5.47710047E-01  0.513282
 
  5 P  1.52686138E-01  1.000000
 
  6 D  8.00000000E-01  1.000000
 
  H (Hydrogen)
  ------------
            Exponent  Coefficients 
       -------------- ---------------------------------------------------------
  1 S  1.30107010E+01  0.019682
  1 S  1.96225720E+00  0.137965
  1 S  4.44537960E-01  0.478319
 
  2 S  1.21949620E-01  1.000000
 
  3 P  8.00000000E-01  1.000000
 


 Summary of "ao basis" -> "" (spherical)
 ------------------------------------------------------------------------------
       Tag                 Description            Shells   Functions and Types
 ---------------- ------------------------------  ------  ---------------------
 Fe                         def2-svp                11       31   5s3p2d1f
 C                          def2-svp                 6       14   3s2p1d
 H                          def2-svp                 3        5   2s1p


 
                                 NWChem DFT Module
                                 -----------------
 
 
          Ferrocene via fragment MOs: Fe only -> Cp rings -> full complex
 
 


 Summary of "ao basis" -> "ao basis" (spherical)
 ------------------------------------------------------------------------------
       Tag                 Description            Shells   Functions and Types
 ---------------- ------------------------------  ------  ---------------------
 Fe                         def2-svp                11       31   5s3p2d1f
 C                          def2-svp                 6       14   3s2p1d
 H                          def2-svp                 3        5   2s1p


  Caching 1-el integrals 
 
            General Information
            -------------------
          SCF calculation type: DFT
          Wavefunction type:  closed shell.
          No. of atoms     :     1
          No. of electrons :    24
           Alpha electrons :    12
            Beta electrons :    12
          Charge           :     2
          Spin multiplicity:     1
          Use of symmetry is: off; symmetry adaption is: off
          Maximum number of iterations: 200
          This is a Direct SCF calculation.
          AO basis - number of functions:    31
                     number of shells:    11
          Convergence on energy requested:  1.00D-06
          Convergence on density requested:  1.00D-05
          Convergence on gradient requested:  5.00D-04
 
              XC Information
              --------------
                         B3LYP Method XC Potential
                     Hartree-Fock (Exact) Exchange  0.200          
                        Slater Exchange Functional  0.800 local    
                    Becke 1988 Exchange Functional  0.720 non-local
              Lee-Yang-Parr Correlation Functional  0.810          
                  VWN I RPA Correlation Functional  0.190 local    
 
             Grid Information
             ----------------
          Grid used for XC integration:  xfine     
          Radial quadrature: Mura-Knowles        
          Angular quadrature: Lebedev. 
          Tag              B.-S. Rad. Rad. Pts. Rad. Cut. Ang. Pts.
          ---              ---------- --------- --------- ---------
          Fe                  1.40      160          10.0      1454
          Grid pruning is: on 
          Number of quadrature shells:   160
          Spatial weights used:  Erf1
 
          Convergence Information
          -----------------------
          Convergence aids based upon iterative change in 
          total energy or number of iterations. 
          Levelshifting, if invoked, occurs when the 
          HOMO/LUMO gap drops below (HL_TOL):  1.00D-02
          DIIS, if invoked, will attempt to extrapolate 
          using up to (NFOCK): 10 stored Fock matrices.

                    Damping( 0%)  Levelshifting(0.5)       DIIS
                  --------------- ------------------- ---------------
          dE  on:    start            ASAP                start   
          dE off:    2 iters        200 iters           200 iters 

 
      Screening Tolerance Information
      -------------------------------
          Density screening/tol_rho:  1.00D-10
          AO Gaussian exp screening on grid/accAOfunc:  14
          CD Gaussian exp screening on grid/accCDfunc:  20
          XC Gaussian exp screening on grid/accXCfunc:  20
          Schwarz screening/accCoul:  1.00D-08

 
      Superposition of Atomic Density Guess
      -------------------------------------
 
 Sum of atomic energies:       -1262.12331467

 Renormalizing density from      26.00 to     24
 
      Non-variational initial energy
      ------------------------------

 Total energy =   -1198.362994
 1-e energy   =   -1609.777154
 2-e energy   =     411.414160
 HOMO         =      -2.258064
 LUMO         =      -2.258064
 
  WARNING: movecs_in_org=atomic not equal to movecs_in=./fe_only.movecs
   Time after variat. SCF:      0.7
   Time prior to 1st pass:      0.7

 Grid_pts file          = ./ferrocene_frag_guess.gridpts.00
 Record size in doubles =  12289        No. of grid_pts per rec  =   3070
 Max. records in memory =      6        Max. recs in file   =   1199253


           Memory utilization after 1st SCF pass: 
           Heap Space remaining (MW):       65.46            65458690
          Stack Space remaining (MW):       65.54            65535716

   convergence    iter        energy       DeltaE   RMS-Dens  Diis-err    time
 ---------------- ----- ----------------- --------- --------- ---------  ------
 d= 0,ls=0.0,diis     1  -1261.8364159170 -1.26D+03  1.28D-01  5.46D+00     0.8
 d= 0,ls=0.0,diis     2  -1260.3390838337  1.50D+00  1.18D-01  1.37D+01     1.4
 d= 0,ls=0.0,diis     3  -1262.4603267972 -2.12D+00  8.53D-03  2.66D-01     1.5
 d= 0,ls=0.0,diis     4  -1262.4876042299 -2.73D-02  1.96D-03  5.94D-03     1.6
 d= 0,ls=0.0,diis     5  -1262.4884426658 -8.38D-04  1.66D-03  4.89D-04     1.9
  Resetting Diis
 d= 0,ls=0.0,diis     6  -1262.4886373900 -1.95D-04  6.20D-04  3.48D-05     2.8
 d= 0,ls=0.0,diis     7  -1262.4886521560 -1.48D-05  4.12D-05  1.09D-07     3.0
 d= 0,ls=0.0,diis     8  -1262.4886523751 -2.19D-07  3.21D-05  8.86D-08     3.1
 d= 0,ls=0.0,diis     9  -1262.4886525457 -1.71D-07  4.50D-05  8.44D-08     3.3
 d= 0,ls=0.0,diis    10  -1262.4886527848 -2.39D-07  2.89D-04  8.36D-08     3.3
 d= 0,ls=0.0,diis    11  -1262.4886512668  1.52D-06  2.00D-03  8.15D-08     4.7
 d= 0,ls=0.0,diis    12  -1262.4886420427  9.22D-06  7.46D-04  7.50D-08     4.8
 d= 0,ls=0.0,diis    13  -1262.4886392041  2.84D-06  1.47D-03  7.16D-08     5.3
 d= 0,ls=0.0,diis    14  -1262.4886346667  4.54D-06  3.59D-03  5.08D-08     5.3
 d= 0,ls=0.0,diis    15  -1262.4886296948  4.97D-06  8.54D-05  7.47D-08     5.4
 d= 0,ls=0.0,diis    16  -1262.4886295893  1.06D-07  1.55D-04  5.63D-07     5.5
 d= 0,ls=0.0,diis    17  -1262.4886297064 -1.17D-07  3.68D-05  3.31D-08     5.5
 d= 0,ls=0.0,diis    18  -1262.4886297138 -7.33D-09  8.52D-06  3.66D-09     5.6


         Total DFT energy =    -1262.488629713763
      One electron energy =    -1725.734415131083
           Coulomb energy =      518.355352056074
    Exchange-Corr. energy =      -55.109566638754
 Nuclear repulsion energy =        0.000000000000

 Numeric. integr. density =       23.999999999999

     Total iterative time =      4.9s


 
                       DFT Final Molecular Orbital Analysis
                       ------------------------------------
 
 Vector    1  Occ=2.000000D+00  E=-2.568675D+02
              MO Center= -2.5D-19, -4.6D-19,  3.0D-19, r^2= 1.3D-03
   Bfn.  Coefficient  Atom+Function         Bfn.  Coefficient  Atom+Function  
  ----- ------------  ---------------      ----- ------------  ---------------
     1      0.995498  1 Fe s          
 
 Vector    2  Occ=2.000000D+00  E=-3.080902D+01
              MO Center= -6.6D-16, -3.1D-16,  1.8D-16, r^2= 2.4D-02
   Bfn.  Coefficient  Atom+Function         Bfn.  Coefficient  Atom+Function  
[...]
  421 Torsion                 13     1    15    16          81.38582   -0.71548
  422 Torsion                 13     1    15    20        -158.14026   -0.31761
  423 Torsion                 13     1    16    15         -81.38582    0.71548
  424 Torsion                 13     1    16    21         158.14026    0.31761
  425 Torsion                 13    12     1    14          37.66634   -0.08026
  426 Torsion                 13    12     1    15          81.38582   -0.71548
  427 Torsion                 13    12     1    16         119.05217   -0.79574
  428 Torsion                 13    12    16    15           0.00000    0.00000
  429 Torsion                 13    12    16    21        -179.26235    0.73765
  430 Torsion                 13    14     1    15        -119.05217    0.79574
  431 Torsion                 13    14     1    16         -81.38582    0.71548
  432 Torsion                 13    14    15    16           0.00000    0.00000
  433 Torsion                 13    14    15    20         179.26235   -0.73765
  434 Torsion                 14     1    12    16         -81.38582    0.71548
  435 Torsion                 14     1    12    17         158.14026    0.31761
  436 Torsion                 14     1    13    18         120.47392    0.39787
  437 Torsion                 14     1    15    16         119.05217   -0.79574
  438 Torsion                 14     1    15    20        -120.47392   -0.39787
  439 Torsion                 14     1    16    15         -37.66634    0.08026
  440 Torsion                 14     1    16    21        -158.14026   -0.31761
  441 Torsion                 14    13     1    15          37.66634   -0.08026
  442 Torsion                 14    13     1    16          81.38582   -0.71548
  443 Torsion                 14    13    12    16           0.00000    0.00000
  444 Torsion                 14    13    12    17        -179.26235    0.73765
  445 Torsion                 14    15     1    16        -119.05217    0.79574
  446 Torsion                 14    15    16    21         179.26235   -0.73765
  447 Torsion                 15     1    12    16         -37.66634    0.08026
  448 Torsion                 15     1    12    17        -158.14026   -0.31761
  449 Torsion                 15     1    13    18         158.14026    0.31761
  450 Torsion                 15     1    14    19         120.47392    0.39787
  451 Torsion                 15     1    16    21        -120.47392   -0.39787
  452 Torsion                 15    14     1    16          37.66634   -0.08026
  453 Torsion                 15    14    13    18        -179.26235    0.73765
  454 Torsion                 15    16    12    17         179.26235   -0.73765
  455 Torsion                 16     1    12    17        -120.47392   -0.39787
  456 Torsion                 16     1    13    18        -158.14026   -0.31761
  457 Torsion                 16     1    14    19         158.14026    0.31761
  458 Torsion                 16     1    15    20         120.47392    0.39787
  459 Torsion                 16    12    13    18         179.26235   -0.73765
  460 Torsion                 16    15    14    19        -179.26235    0.73765
  461 Torsion                 17    12    13    18           0.00000    0.00000
  462 Torsion                 17    12    16    21           0.00000    0.00000
  463 Torsion                 18    13    14    19           0.00000    0.00000
  464 Torsion                 19    14    15    20           0.00000    0.00000
  465 Torsion                 20    15    16    21           0.00000    0.00000
 
 ==============================================================================
                                internuclear distances
 ------------------------------------------------------------------------------
       center one      |      center two      | atomic units |  angstroms
 ------------------------------------------------------------------------------
    2 C                |   1 Fe               |     3.91677  |     2.07267
    3 C                |   1 Fe               |     3.91677  |     2.07267
    3 C                |   2 C                |     2.70077  |     1.42919
    4 C                |   1 Fe               |     3.91677  |     2.07267
    4 C                |   3 C                |     2.70077  |     1.42919
    5 C                |   1 Fe               |     3.91677  |     2.07267
    5 C                |   4 C                |     2.70077  |     1.42919
    6 C                |   1 Fe               |     3.91677  |     2.07267
    6 C                |   2 C                |     2.70077  |     1.42919
    6 C                |   5 C                |     2.70077  |     1.42919
    7 H                |   2 C                |     2.05821  |     1.08916
    8 H                |   3 C                |     2.05821  |     1.08916
    9 H                |   4 C                |     2.05821  |     1.08916
   10 H                |   5 C                |     2.05821  |     1.08916
   11 H                |   6 C                |     2.05821  |     1.08916
   12 C                |   1 Fe               |     3.91677  |     2.07267
   13 C                |   1 Fe               |     3.91677  |     2.07267
   13 C                |  12 C                |     2.70077  |     1.42919
   14 C                |   1 Fe               |     3.91677  |     2.07267
   14 C                |  13 C                |     2.70077  |     1.42919
   15 C                |   1 Fe               |     3.91677  |     2.07267
   15 C                |  14 C                |     2.70077  |     1.42919
   16 C                |   1 Fe               |     3.91677  |     2.07267
   16 C                |  12 C                |     2.70077  |     1.42919
   16 C                |  15 C                |     2.70077  |     1.42919
   17 H                |  12 C                |     2.05821  |     1.08916
   18 H                |  13 C                |     2.05821  |     1.08916
   19 H                |  14 C                |     2.05821  |     1.08916
   20 H                |  15 C                |     2.05821  |     1.08916
   21 H                |  16 C                |     2.05821  |     1.08916
 ------------------------------------------------------------------------------
                         number of included internuclear distances:         30
 ==============================================================================



 ==============================================================================
                                 internuclear angles
 ------------------------------------------------------------------------------
        center 1       |       center 2       |       center 3       |  degrees
 ------------------------------------------------------------------------------
    2 C                |   1 Fe               |   3 C                |    40.34
    2 C                |   1 Fe               |   4 C                |    67.81
    2 C                |   1 Fe               |   5 C                |    67.81
    2 C                |   1 Fe               |   6 C                |    40.34
    2 C                |   1 Fe               |  12 C                |   108.17
    2 C                |   1 Fe               |  13 C                |   123.34
    2 C                |   1 Fe               |  14 C                |   159.11
    2 C                |   1 Fe               |  15 C                |   159.11
    2 C                |   1 Fe               |  16 C                |   123.34
    1 Fe               |   4 C                |   3 C                |    69.83
    3 C                |   1 Fe               |   5 C                |    67.81
    3 C                |   1 Fe               |   6 C                |    67.81
    3 C                |   1 Fe               |  12 C                |   123.34
    3 C                |   1 Fe               |  13 C                |   108.17
    3 C                |   1 Fe               |  14 C                |   123.34
    3 C                |   1 Fe               |  15 C                |   159.11
    3 C                |   1 Fe               |  16 C                |   159.11
    4 C                |   1 Fe               |   5 C                |    40.34
    4 C                |   1 Fe               |   6 C                |    67.81
    4 C                |   1 Fe               |  12 C                |   159.11
    4 C                |   1 Fe               |  13 C                |   123.34
    4 C                |   1 Fe               |  14 C                |   108.17
    4 C                |   1 Fe               |  15 C                |   123.34
    4 C                |   1 Fe               |  16 C                |   159.11
    1 Fe               |   5 C                |   6 C                |    69.83
    5 C                |   1 Fe               |  12 C                |   159.11
    5 C                |   1 Fe               |  13 C                |   159.11
    5 C                |   1 Fe               |  14 C                |   123.34
    5 C                |   1 Fe               |  15 C                |   108.17
    5 C                |   1 Fe               |  16 C                |   123.34
    6 C                |   1 Fe               |  12 C                |   123.34
    6 C                |   1 Fe               |  13 C                |   159.11
    6 C                |   1 Fe               |  14 C                |   159.11
    6 C                |   1 Fe               |  15 C                |   123.34
    6 C                |   1 Fe               |  16 C                |   108.17
   12 C                |   1 Fe               |  13 C                |    40.34
   12 C                |   1 Fe               |  14 C                |    67.81
   12 C                |   1 Fe               |  15 C                |    67.81
   12 C                |   1 Fe               |  16 C                |    40.34
    1 Fe               |  14 C                |  13 C                |    69.83
   13 C                |   1 Fe               |  15 C                |    67.81
   13 C                |   1 Fe               |  16 C                |    67.81
   14 C                |   1 Fe               |  15 C                |    40.34
   14 C                |   1 Fe               |  16 C                |    67.81
    1 Fe               |  15 C                |  16 C                |    69.83
    2 C                |   1 Fe               |   3 C                |    40.34
    2 C                |   1 Fe               |   6 C                |    40.34
    1 Fe               |   2 C                |   7 H                |   125.32
    3 C                |   2 C                |   6 C                |   108.00
    3 C                |   2 C                |   7 H                |   126.00
    6 C                |   2 C                |   7 H                |   126.00
    3 C                |   1 Fe               |   2 C                |    40.34
    3 C                |   4 C                |   1 Fe               |    69.83
    1 Fe               |   3 C                |   8 H                |   125.32
    2 C                |   3 C                |   4 C                |   108.00
    2 C                |   3 C                |   8 H                |   126.00
    4 C                |   3 C                |   8 H                |   126.00
    1 Fe               |   4 C                |   3 C                |    69.83
    4 C                |   1 Fe               |   5 C                |    40.34
    1 Fe               |   4 C                |   9 H                |   125.32
    3 C                |   4 C                |   5 C                |   108.00
    3 C                |   4 C                |   9 H                |   126.00
    5 C                |   4 C                |   9 H                |   126.00
    5 C                |   1 Fe               |   4 C                |    40.34
    1 Fe               |   5 C                |   6 C                |    69.83
    1 Fe               |   5 C                |  10 H                |   125.32
    4 C                |   5 C                |   6 C                |   108.00
    4 C                |   5 C                |  10 H                |   126.00
    6 C                |   5 C                |  10 H                |   126.00
    6 C                |   1 Fe               |   2 C                |    40.34
    6 C                |   5 C                |   1 Fe               |    69.83
    1 Fe               |   6 C                |  11 H                |   125.32
    2 C                |   6 C                |   5 C                |   108.00
    2 C                |   6 C                |  11 H                |   126.00
    5 C                |   6 C                |  11 H                |   126.00
   12 C                |   1 Fe               |  13 C                |    40.34
   12 C                |   1 Fe               |  16 C                |    40.34
    1 Fe               |  12 C                |  17 H                |   125.32
   13 C                |  12 C                |  16 C                |   108.00
   13 C                |  12 C                |  17 H                |   126.00
   16 C                |  12 C                |  17 H                |   126.00
   13 C                |   1 Fe               |  12 C                |    40.34
   13 C                |  14 C                |   1 Fe               |    69.83
    1 Fe               |  13 C                |  18 H                |   125.32
   12 C                |  13 C                |  14 C                |   108.00
   12 C                |  13 C                |  18 H                |   126.00
   14 C                |  13 C                |  18 H                |   126.00
    1 Fe               |  14 C                |  13 C                |    69.83
   14 C                |   1 Fe               |  15 C                |    40.34
    1 Fe               |  14 C                |  19 H                |   125.32
   13 C                |  14 C                |  15 C                |   108.00
   13 C                |  14 C                |  19 H                |   126.00
   15 C                |  14 C                |  19 H                |   126.00
   15 C                |   1 Fe               |  14 C                |    40.34
    1 Fe               |  15 C                |  16 C                |    69.83
    1 Fe               |  15 C                |  20 H                |   125.32
   14 C                |  15 C                |  16 C                |   108.00
   14 C                |  15 C                |  20 H                |   126.00
   16 C                |  15 C                |  20 H                |   126.00
   16 C                |   1 Fe               |  12 C                |    40.34
   16 C                |  15 C                |   1 Fe               |    69.83
    1 Fe               |  16 C                |  21 H                |   125.32
   12 C                |  16 C                |  15 C                |   108.00
   12 C                |  16 C                |  21 H                |   126.00
   15 C                |  16 C                |  21 H                |   126.00
 ------------------------------------------------------------------------------
                            number of included internuclear angles:        105
 ==============================================================================




 Task  times  cpu:       53.5s     wall:       58.4s
 
 
                                NWChem Input Module
                                -------------------
 
 
 Summary of allocated global arrays
-----------------------------------
  No active global arrays


MA_summarize_allocated_blocks: starting scan ...
MA_summarize_allocated_blocks: scan completed: 0 heap blocks, 0 stack blocks
MA usage statistics:

	allocation statistics:
					      heap	     stack
					      ----	     -----
	current number of blocks	         0	         0
	maximum number of blocks	        25	        58
	current total bytes		         0	         0
	maximum total bytes		   1499752	  89029848
	maximum total K-bytes		      1500	     89030
	maximum total M-bytes		         2	        90
 
 
                                     CITATION
                                     --------
                Please cite the following reference when publishing
                           results obtained with NWChem:
 
          E. Apra, E. J. Bylaska, W. A. de Jong, N. Govind, K. Kowalski,
       T. P. Straatsma, M. Valiev, H. J. J. van Dam, Y. Alexeev, J. Anchell,
       V. Anisimov, F. W. Aquino, R. Atta-Fynn, J. Autschbach, N. P. Bauman,
     J. C. Becca, D. E. Bernholdt, K. Bhaskaran-Nair, S. Bogatko, P. Borowski,
         J. Boschen, J. Brabec, A. Bruner, E. Cauet, Y. Chen, G. N. Chuev,
      C. J. Cramer, J. Daily, M. J. O. Deegan, T. H. Dunning Jr., M. Dupuis,
   K. G. Dyall, G. I. Fann, S. A. Fischer, A. Fonari, H. Fruchtl, L. Gagliardi,
      J. Garza, N. Gawande, S. Ghosh, K. Glaesemann, A. W. Gotz, J. Hammond,
       V. Helms, E. D. Hermes, K. Hirao, S. Hirata, M. Jacquelin, L. Jensen,
   B. G. Johnson, H. Jonsson, R. A. Kendall, M. Klemm, R. Kobayashi, V. Konkov,
      S. Krishnamoorthy, M. Krishnan, Z. Lin, R. D. Lins, R. J. Littlefield,
      A. J. Logsdail, K. Lopata, W. Ma, A. V. Marenich, J. Martin del Campo,
   D. Mejia-Rodriguez, J. E. Moore, J. M. Mullin, T. Nakajima, D. R. Nascimento,
    J. A. Nichols, P. J. Nichols, J. Nieplocha, A. Otero-de-la-Roza, B. Palmer,
    A. Panyala, T. Pirojsirikul, B. Peng, R. Peverati, J. Pittner, L. Pollack,
   R. M. Richard, P. Sadayappan, G. C. Schatz, W. A. Shelton, D. W. Silverstein,
   D. M. A. Smith, T. A. Soares, D. Song, M. Swart, H. L. Taylor, G. S. Thomas,
            V. Tipparaju, D. G. Truhlar, K. Tsemekhman, T. Van Voorhis,
      A. Vazquez-Mayagoitia, P. Verma, O. Villa, A. Vishnu, K. D. Vogiatzis,
        D. Wang, J. H. Weare, M. J. Williamson, T. L. Windus, K. Wolinski,
        A. T. Wong, Q. Wu, C. Yang, Q. Yu, M. Zacharias, Z. Zhang, Y. Zhao,
                                and R. J. Harrison
                        "NWChem: Past, present, and future
                         J. Chem. Phys. 152, 184102 (2020)
                               doi:10.1063/5.0004997
 
                                      AUTHORS
                                      -------
  E. Apra, E. J. Bylaska, N. Govind, K. Kowalski, M. Valiev, D. Mejia-Rodriguez,
       A. Kunitsa, N. P. Bauman, A. Panyala, W. A. de Jong, T. P. Straatsma,
   H. J. J. van Dam, D. Wang, T. L. Windus, J. Hammond, J. Autschbach, A. Woods,
    K. Bhaskaran-Nair, J. Brabec, K. Lopata, S. A. Fischer, S. Krishnamoorthy,
     M. Jacquelin, W. Ma, M. Klemm, O. Villa, Y. Chen, V. Anisimov, F. Aquino,
     S. Hirata, M. T. Hackler, E. Hermes, L. Jensen, J. E. Moore, J. C. Becca,
      V. Konjkov, T. Risthaus, M. Malagoli, A. Marenich, A. Otero-de-la-Roza,
        J. Mullin, P. Nichols, R. Peverati, J. Pittner, Y. Zhao, P.-D. Fan,
        A. Fonari, M. J. Williamson, R. J. Harrison, J. R. Rehr, M. Dupuis,
     D. Silverstein, D. M. A. Smith, J. Nieplocha, V. Tipparaju, M. Krishnan,
     B. E. Van Kuiken, A. Vazquez-Mayagoitia, M. Swart, Q. Wu, T. Van Voorhis,
     A. A. Auer, M. Nooijen, L. D. Crosby, E. Brown, G. Cisneros, G. I. Fann,
   H. Fruchtl, J. Garza, K. Hirao, R. A. Kendall, J. A. Nichols, K. Tsemekhman,
    K. Wolinski, J. Anchell, D. E. Bernholdt, P. Borowski, T. Clark, D. Clerc,
   H. Dachsel, M. J. O. Deegan, K. Dyall, D. Elwood, E. Glendening, M. Gutowski,
   A. C. Hess, J. Jaffe, B. G. Johnson, J. Ju, R. Kobayashi, R. Kutteh, Z. Lin,
   R. Littlefield, X. Long, B. Meng, T. Nakajima, S. Niu, L. Pollack, M. Rosing,
   K. Glaesemann, G. Sandrone, M. Stave, H. Taylor, G. Thomas, J. H. van Lenthe,
                               A. T. Wong, Z. Zhang.

 Total times  cpu:       62.8s     wall:       68.6s
