 argument  1 = guanine.nw
                                         
                                         
 
 
             Northwest Computational Chemistry Package (NWChem) 7.2.2
             --------------------------------------------------------
 
 
                    Environmental Molecular Sciences Laboratory
                       Pacific Northwest National Laboratory
                                Richland, WA 99352
 
                              Copyright (c) 1994-2022
                       Pacific Northwest National Laboratory
                            Battelle Memorial Institute
 
             NWChem is an open-source computational chemistry package
                        distributed under the terms of the
                      Educational Community License (ECL) 2.0
             A copy of the license is included with this distribution
                              in the LICENSE.TXT file
 
                                  ACKNOWLEDGMENT
                                  --------------

            This software and its documentation were developed at the
            EMSL at Pacific Northwest National Laboratory, a multiprogram
            national laboratory, operated for the U.S. Department of Energy
            by Battelle under Contract Number DE-AC05-76RL01830. Support
            for this work was provided by the Department of Energy Office
            of Biological and Environmental Research, Office of Basic
            Energy Sciences, and the Office of Advanced Scientific Computing.


           Job information
           ---------------

    hostname        = charliebox
    program         = /apps/nwchem/bin/nwchem
    date            = Sun Oct 19 14:50:05 2025

    compiled        = Tue_Apr_23_01:04:59_2024
    source          = /apps/nwchem-7.2.2-release
    nwchem branch   = 7.2.2
    nwchem revision = N/A
    ga revision     = 5.8.0
    use scalapack   = T
    input           = guanine.nw
    prefix          = guanine.
    data base       = ./guanine.db
    status          = startup
    nproc           =       19
    time left       =     -1s



           Memory information
           ------------------

    heap     =   26214394 doubles =    200.0 Mbytes
    stack    =   26214399 doubles =    200.0 Mbytes
    global   =   52428800 doubles =    400.0 Mbytes (distinct from heap & stack)
    total    =  104857593 doubles =    800.0 Mbytes
    verify   = yes
    hardfail = no 


           Directory information
           ---------------------
 
  0 permanent = .
  0 scratch   = .
 
 
 
 
                                NWChem Input Module
                                -------------------
 
 
 CS  symmetry detected

          ------
          auto-z
          ------
      warning. autoz generated    7 bonds for atom    2
      warning. autoz generated    9 bonds for atom    4
      warning. autoz generated    9 bonds for atom    5
      warning. autoz generated    7 bonds for atom    6
      warning. autoz generated    8 bonds for atom    7
      warning. autoz generated    8 bonds for atom    9
      warning. autoz generated    9 bonds for atom   11
      warning. autoz generated    8 bonds for atom   12
  autoz: excessive number of variables                   1914
                   672

 AUTOZ failed to generate good internal coordinates.
 Cartesian coordinates will be used in optimizations.

 
 
                             Geometry "geometry" -> ""
                             -------------------------
 
 Output coordinates in a.u. (scale by  1.000000000 to convert to a.u.)
 
  No.       Tag          Charge          X              Y              Z
 ---- ---------------- ---------- -------------- -------------- --------------
    1 C                    6.0000     0.49254529    -2.74736154     0.00000000
    2 N                    7.0000     1.48401845    -1.80953317     0.00000000
    3 H                    1.0000     2.43832343    -1.98350586     0.00000000
    4 C                    6.0000     0.88578323    -0.57865029     0.00000000
    5 C                    6.0000    -0.49320994    -0.81728976     0.00000000
    6 N                    7.0000    -0.66887148    -2.16119478     0.00000000
    7 C                    6.0000    -1.37214166     0.29098509     0.00000000
    8 O                    8.0000    -2.58063705     0.12995051     0.00000000
    9 N                    7.0000    -0.83897720     1.53280035     0.00000000
   10 H                    1.0000    -1.42179939     2.30818367     0.00000000
   11 C                    6.0000     0.51361798     1.70123906     0.00000000
   12 N                    7.0000     1.34074722     0.67976273     0.00000000
   13 N                    7.0000     1.02658156     2.97395374     0.00000000
   14 H                    1.0000     0.64877588    -3.81595709     0.00000000
   15 H                    1.0000     0.42875969     3.73783663     0.00000000
   16 H                    1.0000     1.98697767     3.10978123     0.00000000
 
      Atomic Mass 
      ----------- 
 
      C                 12.000000
      N                 14.003070
      H                  1.007825
      O                 15.994910
 

 Effective nuclear repulsion energy (a.u.)    1134.3247400821

            Nuclear Dipole moment (a.u.) 
            ----------------------------
        X                 Y               Z
 ---------------- ---------------- ----------------
     0.0000000000    -0.0000000000     0.0000000000
 
      Symmetry information
      --------------------
 
 Group name             Cs        
 Group number              2
 Group order               2
 No. of unique centers    16
 
      Symmetry unique atoms
 
     1    2    3    4    5    6    7    8    9   10   11   12   13   14   15
    16
 
 
            XYZ format geometry
            -------------------
    16
 geometry
 C                     0.26064376    -1.45384122     0.00000000
 N                     0.78530880    -0.95756378     0.00000000
 H                     1.29030529    -1.04962617     0.00000000
 C                     0.46873633    -0.30620857     0.00000000
 C                    -0.26099548    -0.43249115     0.00000000
 N                    -0.35395157    -1.14365511     0.00000000
 C                    -0.72610615     0.15398269     0.00000000
 O                    -1.36561442     0.06876685     0.00000000
 N                    -0.44396765     0.81112307     0.00000000
 H                    -0.75238389     1.22143829     0.00000000
 C                     0.27179495     0.90025701     0.00000000
 N                     0.70949292     0.35971497     0.00000000
 N                     0.54324360     1.57374866     0.00000000
 H                     0.34331744    -2.01931767     0.00000000
 H                     0.22688988     1.97797811     0.00000000
 H                     1.05146338     1.64562547     0.00000000
 
 ==============================================================================
                                internuclear distances
 ------------------------------------------------------------------------------
       center one      |      center two      | atomic units |       a.u.
 ------------------------------------------------------------------------------
    2 N                |   1 C                |     1.36475  |     1.36475
    3 H                |   1 C                |     2.09034  |     2.09034
    3 H                |   2 N                |     0.97003  |     0.97003
    4 C                |   1 C                |     2.20407  |     2.20407
    4 C                |   2 N                |     1.36856  |     1.36856
    4 C                |   3 H                |     2.09380  |     2.09380
    5 C                |   1 C                |     2.16723  |     2.16723
    5 C                |   2 N                |     2.21223  |     2.21223
    5 C                |   4 C                |     1.39949  |     1.39949
    6 N                |   1 C                |     1.30095  |     1.30095
    6 N                |   2 N                |     2.18142  |     2.18142
    6 N                |   4 C                |     2.21842  |     2.21842
    6 N                |   5 C                |     1.35534  |     1.35534
    7 C                |   4 C                |     2.41961  |     2.41961
    7 C                |   5 C                |     1.41449  |     1.41449
    7 C                |   6 N                |     2.55103  |     2.55103
    8 O                |   5 C                |     2.29229  |     2.29229
    8 O                |   7 C                |     1.21918  |     1.21918
    9 N                |   4 C                |     2.72636  |     2.72636
    9 N                |   5 C                |     2.37539  |     2.37539
    9 N                |   7 C                |     1.35143  |     1.35143
    9 N                |   8 O                |     2.23637  |     2.23637
   10 H                |   7 C                |     2.01781  |     2.01781
   10 H                |   9 N                |     0.97000  |     0.97000
   11 C                |   4 C                |     2.31007  |     2.31007
   11 C                |   5 C                |     2.71232  |     2.71232
   11 C                |   7 C                |     2.35476  |     2.35476
   11 C                |   9 N                |     1.36304  |     1.36304
   11 C                |  10 H                |     2.02835  |     2.02835
   12 N                |   2 N                |     2.49342  |     2.49342
   12 N                |   4 C                |     1.33813  |     1.33813
   12 N                |   5 C                |     2.36740  |     2.36740
   12 N                |   7 C                |     2.74060  |     2.74060
   12 N                |   9 N                |     2.34070  |     2.34070
   12 N                |  11 C                |     1.31437  |     1.31437
   13 N                |   9 N                |     2.35738  |     2.35738
   13 N                |  11 C                |     1.37220  |     1.37220
   13 N                |  12 N                |     2.31560  |     2.31560
   14 H                |   1 C                |     1.07996  |     1.07996
   14 H                |   6 N                |     2.11529  |     2.11529
   15 H                |  11 C                |     2.03836  |     2.03836
   15 H                |  13 N                |     0.97000  |     0.97000
   16 H                |  11 C                |     2.03833  |     2.03833
   16 H                |  13 N                |     0.96995  |     0.96995
 ------------------------------------------------------------------------------
                         number of included internuclear distances:         44
 ==============================================================================



 ==============================================================================
                                 internuclear angles
 ------------------------------------------------------------------------------
        center 1       |       center 2       |       center 3       |  degrees
 ------------------------------------------------------------------------------
    1 C                |   2 N                |   3 H                |   126.26
    1 C                |   2 N                |   4 C                |   107.49
    2 N                |   1 C                |   5 C                |    73.65
    2 N                |   1 C                |   6 N                |   109.81
    2 N                |   1 C                |  14 H                |   125.09
    1 C                |   3 H                |   4 C                |    63.57
    3 H                |   1 C                |   5 C                |    95.62
    3 H                |   1 C                |   6 N                |   131.79
    3 H                |   1 C                |  14 H                |   103.12
    1 C                |   5 C                |   4 C                |    72.76
    4 C                |   1 C                |   6 N                |    73.50
    4 C                |   1 C                |  14 H                |   161.40
    1 C                |   6 N                |   5 C                |   109.33
    5 C                |   1 C                |  14 H                |   161.26
    6 N                |   1 C                |  14 H                |   125.10
    1 C                |   2 N                |   3 H                |   126.26
    1 C                |   2 N                |   4 C                |   107.49
    2 N                |   1 C                |   5 C                |    73.65
    2 N                |   1 C                |   6 N                |   109.81
    1 C                |   2 N                |  12 N                |   130.11
    3 H                |   2 N                |   4 C                |   126.25
    3 H                |   2 N                |   5 C                |   163.68
    3 H                |   2 N                |   6 N                |   160.39
    3 H                |   2 N                |  12 N                |   103.63
    2 N                |   4 C                |   5 C                |   106.10
    4 C                |   2 N                |   6 N                |    73.36
    2 N                |   4 C                |  12 N                |   134.20
    2 N                |   6 N                |   5 C                |    73.28
    2 N                |   5 C                |  12 N                |    65.87
    6 N                |   2 N                |  12 N                |    95.98
    3 H                |   2 N                |   1 C                |   126.26
    1 C                |   3 H                |   4 C                |    63.57
    3 H                |   2 N                |   4 C                |   126.25
    4 C                |   2 N                |   1 C                |   107.49
    4 C                |   3 H                |   1 C                |    63.57
    4 C                |   5 C                |   1 C                |    72.76
    4 C                |   1 C                |   6 N                |    73.50
    1 C                |   4 C                |   7 C                |   100.79
    1 C                |   4 C                |   9 N                |   130.48
    1 C                |   4 C                |  11 C                |   160.45
    1 C                |   4 C                |  12 N                |   170.40
    4 C                |   2 N                |   3 H                |   126.25
    2 N                |   4 C                |   5 C                |   106.10
    4 C                |   2 N                |   6 N                |    73.36
    2 N                |   4 C                |   7 C                |   136.98
    2 N                |   4 C                |   9 N                |   166.68
    2 N                |   4 C                |  11 C                |   163.35
    2 N                |   4 C                |  12 N                |   134.20
    3 H                |   4 C                |   5 C                |   128.04
    3 H                |   4 C                |   6 N                |    92.35
    3 H                |   4 C                |   7 C                |   158.92
    3 H                |   4 C                |   9 N                |   171.39
    3 H                |   4 C                |  11 C                |   141.41
    3 H                |   4 C                |  12 N                |   112.26
    4 C                |   5 C                |   6 N                |   107.26
    4 C                |   5 C                |   7 C                |   118.60
    4 C                |   5 C                |   9 N                |    88.55
    5 C                |   4 C                |  11 C                |    90.55
    5 C                |   4 C                |  12 N                |   119.69
    6 N                |   4 C                |   7 C                |    66.57
    6 N                |   4 C                |   9 N                |    96.27
    6 N                |   4 C                |  11 C                |   126.24
    6 N                |   4 C                |  12 N                |   155.39
    4 C                |   7 C                |   9 N                |    87.83
    4 C                |  11 C                |   7 C                |    62.48
    7 C                |   4 C                |  12 N                |    88.81
    4 C                |  11 C                |   9 N                |    92.17
    4 C                |  12 N                |   9 N                |    91.50
    4 C                |  12 N                |  11 C                |   121.12
    5 C                |   1 C                |   2 N                |    73.65
    1 C                |   5 C                |   4 C                |    72.76
    5 C                |   6 N                |   1 C                |   109.33
    1 C                |   5 C                |   7 C                |   168.64
    1 C                |   5 C                |   8 O                |   141.46
    1 C                |   5 C                |   9 N                |   161.31
    1 C                |   5 C                |  11 C                |   131.16
    1 C                |   5 C                |  12 N                |   102.17
    5 C                |   4 C                |   2 N                |   106.10
    5 C                |   6 N                |   2 N                |    73.28
    2 N                |   5 C                |   7 C                |   155.07
    2 N                |   5 C                |   8 O                |   177.76
    2 N                |   5 C                |   9 N                |   125.02
    2 N                |   5 C                |  11 C                |    94.86
    2 N                |   5 C                |  12 N                |    65.87
    4 C                |   5 C                |   6 N                |   107.26
    4 C                |   5 C                |   7 C                |   118.60
    4 C                |   5 C                |   8 O                |   145.77
    4 C                |   5 C                |   9 N                |    88.55
    5 C                |   4 C                |  11 C                |    90.55
    5 C                |   4 C                |  12 N                |   119.69
    6 N                |   5 C                |   7 C                |   134.14
    6 N                |   5 C                |   8 O                |   106.96
    6 N                |   5 C                |   9 N                |   164.18
    6 N                |   5 C                |  11 C                |   165.66
    6 N                |   5 C                |  12 N                |   136.67
    5 C                |   7 C                |   8 O                |   120.83
    5 C                |   7 C                |   9 N                |   118.35
    5 C                |   7 C                |  11 C                |    88.37
    7 C                |   5 C                |  12 N                |    89.19
    5 C                |   8 O                |   9 N                |    63.26
    8 O                |   5 C                |  11 C                |    87.38
    8 O                |   5 C                |  12 N                |   116.37
    5 C                |   9 N                |  11 C                |    88.73
    5 C                |  12 N                |   9 N                |    60.60
    5 C                |  12 N                |  11 C                |    90.23
    6 N                |   1 C                |   2 N                |   109.81
    6 N                |   1 C                |   4 C                |    73.50
    1 C                |   6 N                |   5 C                |   109.33
    1 C                |   6 N                |   7 C                |   132.78
    6 N                |   1 C                |  14 H                |   125.10
    6 N                |   2 N                |   4 C                |    73.36
    2 N                |   6 N                |   5 C                |    73.28
    2 N                |   6 N                |   7 C                |    96.73
    2 N                |   6 N                |  14 H                |    60.75
    6 N                |   5 C                |   4 C                |   107.26
    6 N                |   4 C                |   7 C                |    66.57
    4 C                |   6 N                |  14 H                |    96.98
    6 N                |   5 C                |   7 C                |   134.14
    5 C                |   6 N                |  14 H                |   134.02
    7 C                |   6 N                |  14 H                |   157.47
    7 C                |   5 C                |   4 C                |   118.60
    7 C                |   4 C                |   6 N                |    66.57
    4 C                |   7 C                |   8 O                |   151.35
    4 C                |   7 C                |   9 N                |    87.83
    4 C                |   7 C                |  10 H                |   112.47
    7 C                |  11 C                |   4 C                |    62.48
    7 C                |   4 C                |  12 N                |    88.81
    7 C                |   5 C                |   6 N                |   134.14
    5 C                |   7 C                |   8 O                |   120.83
    5 C                |   7 C                |   9 N                |   118.35
    5 C                |   7 C                |  10 H                |   142.99
    5 C                |   7 C                |  11 C                |    88.37
    7 C                |   5 C                |  12 N                |    89.19
    6 N                |   7 C                |   8 O                |    98.41
    6 N                |   7 C                |   9 N                |   140.76
    6 N                |   7 C                |  10 H                |   165.41
    6 N                |   7 C                |  11 C                |   110.79
    6 N                |   7 C                |  12 N                |    82.15
    8 O                |   7 C                |   9 N                |   120.83
    8 O                |   7 C                |  10 H                |    96.18
    8 O                |   7 C                |  11 C                |   150.80
    8 O                |   7 C                |  12 N                |   179.43
    7 C                |   9 N                |  10 H                |   119.83
    7 C                |   9 N                |  11 C                |   120.33
    7 C                |   9 N                |  12 N                |    91.86
    7 C                |  10 H                |  11 C                |    71.18
   10 H                |   7 C                |  12 N                |    83.25
    7 C                |  11 C                |  12 N                |    92.21
    8 O                |   7 C                |   5 C                |   120.83
    5 C                |   8 O                |   9 N                |    63.26
    8 O                |   7 C                |   9 N                |   120.83
    9 N                |   5 C                |   4 C                |    88.55
    9 N                |   7 C                |   4 C                |    87.83
    4 C                |   9 N                |   8 O                |    90.39
    4 C                |   9 N                |  10 H                |   177.69
    9 N                |  11 C                |   4 C                |    92.17
    9 N                |  12 N                |   4 C                |    91.50
    4 C                |   9 N                |  13 N                |    88.44
    9 N                |   7 C                |   5 C                |   118.35
    9 N                |   8 O                |   5 C                |    63.26
    5 C                |   9 N                |  10 H                |   151.44
    5 C                |   9 N                |  11 C                |    88.73
    9 N                |  12 N                |   5 C                |    60.60
    5 C                |   9 N                |  13 N                |   119.32
    9 N                |   7 C                |   8 O                |   120.83
    7 C                |   9 N                |  10 H                |   119.83
    7 C                |   9 N                |  11 C                |   120.33
    7 C                |   9 N                |  12 N                |    91.86
    7 C                |   9 N                |  13 N                |   150.92
    8 O                |   9 N                |  10 H                |    91.92
    8 O                |   9 N                |  11 C                |   148.25
    8 O                |   9 N                |  12 N                |   119.78
    8 O                |   9 N                |  13 N                |   178.84
   10 H                |   9 N                |  11 C                |   119.83
   10 H                |   9 N                |  12 N                |   148.30
   10 H                |   9 N                |  13 N                |    89.24
    9 N                |  11 C                |  12 N                |   121.90
    9 N                |  11 C                |  13 N                |   119.05
    9 N                |  12 N                |  13 N                |    60.83
   10 H                |   9 N                |   7 C                |   119.83
    7 C                |  10 H                |  11 C                |    71.18
   10 H                |   9 N                |  11 C                |   119.83
   11 C                |   4 C                |   5 C                |    90.55
    4 C                |  11 C                |   7 C                |    62.48
    4 C                |  11 C                |   9 N                |    92.17
    4 C                |  11 C                |  10 H                |   116.68
   11 C                |  12 N                |   4 C                |   121.12
    4 C                |  11 C                |  13 N                |   148.78
    4 C                |  11 C                |  15 H                |   173.11
    4 C                |  11 C                |  16 H                |   124.44
   11 C                |   7 C                |   5 C                |    88.37
   11 C                |   9 N                |   5 C                |    88.73
    5 C                |  11 C                |  10 H                |    85.62
   11 C                |  12 N                |   5 C                |    90.23
    5 C                |  11 C                |  13 N                |   179.84
    5 C                |  11 C                |  15 H                |   155.82
    5 C                |  11 C                |  16 H                |   155.50
   11 C                |   9 N                |   7 C                |   120.33
   11 C                |  10 H                |   7 C                |    71.18
    7 C                |  11 C                |  12 N                |    92.21
    7 C                |  11 C                |  13 N                |   148.74
    7 C                |  11 C                |  15 H                |   124.40
    7 C                |  11 C                |  16 H                |   173.08
   11 C                |   9 N                |  10 H                |   119.83
    9 N                |  11 C                |  12 N                |   121.90
    9 N                |  11 C                |  13 N                |   119.05
    9 N                |  11 C                |  15 H                |    94.71
    9 N                |  11 C                |  16 H                |   143.39
   10 H                |  11 C                |  12 N                |   146.41
   10 H                |  11 C                |  13 N                |    94.54
   10 H                |  11 C                |  15 H                |    70.20
   10 H                |  11 C                |  16 H                |   118.88
   12 N                |  11 C                |  13 N                |   119.05
   12 N                |  11 C                |  15 H                |   143.39
   12 N                |  11 C                |  16 H                |    94.71
   11 C                |  13 N                |  15 H                |   120.00
   11 C                |  13 N                |  16 H                |   120.00
   15 H                |  11 C                |  16 H                |    48.67
   12 N                |   4 C                |   2 N                |   134.20
   12 N                |   5 C                |   2 N                |    65.87
    2 N                |  12 N                |   7 C                |    85.14
    2 N                |  12 N                |   9 N                |   114.67
    2 N                |  12 N                |  11 C                |   144.30
    2 N                |  12 N                |  13 N                |   175.50
   12 N                |   4 C                |   5 C                |   119.69
   12 N                |   4 C                |   7 C                |    88.81
    4 C                |  12 N                |   9 N                |    91.50
    4 C                |  12 N                |  11 C                |   121.12
    4 C                |  12 N                |  13 N                |   152.33
   12 N                |   5 C                |   7 C                |    89.19
    5 C                |  12 N                |   9 N                |    60.60
    5 C                |  12 N                |  11 C                |    90.23
    5 C                |  12 N                |  13 N                |   121.43
   12 N                |   9 N                |   7 C                |    91.86
   12 N                |  11 C                |   7 C                |    92.21
    7 C                |  12 N                |  13 N                |    90.36
   12 N                |  11 C                |   9 N                |   121.90
    9 N                |  12 N                |  13 N                |    60.83
   12 N                |  11 C                |  13 N                |   119.05
   13 N                |  11 C                |   9 N                |   119.05
   13 N                |  12 N                |   9 N                |    60.83
    9 N                |  13 N                |  15 H                |    89.64
    9 N                |  13 N                |  16 H                |   150.36
   13 N                |  11 C                |  12 N                |   119.05
   11 C                |  13 N                |  15 H                |   120.00
   11 C                |  13 N                |  16 H                |   120.00
   12 N                |  13 N                |  15 H                |   149.75
   12 N                |  13 N                |  16 H                |    90.25
   15 H                |  13 N                |  16 H                |   120.00
   14 H                |   1 C                |   6 N                |   125.10
   15 H                |  13 N                |  11 C                |   120.00
   16 H                |  13 N                |  11 C                |   120.00
 ------------------------------------------------------------------------------
                            number of included internuclear angles:        252
 ==============================================================================



  library name resolved from: environment
  library file name is: </apps/nwchem/data/libraries/>
  
                      Basis "ao basis" -> "" (cartesian)
                      -----
  H (Hydrogen)
  ------------
            Exponent  Coefficients 
       -------------- ---------------------------------------------------------
  1 S  3.38700000E+01  0.006068
  1 S  5.09500000E+00  0.045308
  1 S  1.15900000E+00  0.202822
 
  2 S  3.25800000E-01  1.000000
 
  3 S  1.02700000E-01  1.000000
 
  4 P  1.40700000E+00  1.000000
 
  5 P  3.88000000E-01  1.000000
 
  6 D  1.05700000E+00  1.000000
 
  C (Carbon)
  ----------
            Exponent  Coefficients 
       -------------- ---------------------------------------------------------
  1 S  8.23600000E+03  0.000531
  1 S  1.23500000E+03  0.004108
  1 S  2.80800000E+02  0.021087
  1 S  7.92700000E+01  0.081853
  1 S  2.55900000E+01  0.234817
  1 S  8.99700000E+00  0.434401
  1 S  3.31900000E+00  0.346129
  1 S  3.64300000E-01 -0.008983
 
  2 S  8.23600000E+03 -0.000113
  2 S  1.23500000E+03 -0.000878
  2 S  2.80800000E+02 -0.004540
  2 S  7.92700000E+01 -0.018133
  2 S  2.55900000E+01 -0.055760
  2 S  8.99700000E+00 -0.126895
  2 S  3.31900000E+00 -0.170352
  2 S  3.64300000E-01  0.598684
 
  3 S  9.05900000E-01  1.000000
 
  4 S  1.28500000E-01  1.000000
 
  5 P  1.87100000E+01  0.014031
  5 P  4.13300000E+00  0.086866
  5 P  1.20000000E+00  0.290216
 
  6 P  3.82700000E-01  1.000000
 
  7 P  1.20900000E-01  1.000000
 
  8 D  1.09700000E+00  1.000000
 
  9 D  3.18000000E-01  1.000000
 
 10 F  7.61000000E-01  1.000000
 
  O (Oxygen)
  ----------
            Exponent  Coefficients 
       -------------- ---------------------------------------------------------
  1 S  1.53300000E+04  0.000508
  1 S  2.29900000E+03  0.003929
  1 S  5.22400000E+02  0.020243
  1 S  1.47300000E+02  0.079181
  1 S  4.75500000E+01  0.230687
  1 S  1.67600000E+01  0.433118
  1 S  6.20700000E+00  0.350260
  1 S  6.88200000E-01 -0.008154
 
  2 S  1.53300000E+04 -0.000115
  2 S  2.29900000E+03 -0.000895
  2 S  5.22400000E+02 -0.004636
  2 S  1.47300000E+02 -0.018724
  2 S  4.75500000E+01 -0.058463
  2 S  1.67600000E+01 -0.136463
  2 S  6.20700000E+00 -0.175740
  2 S  6.88200000E-01  0.603418
 
  3 S  1.75200000E+00  1.000000
 
  4 S  2.38400000E-01  1.000000
 
  5 P  3.44600000E+01  0.015928
  5 P  7.74900000E+00  0.099740
  5 P  2.28000000E+00  0.310492
 
  6 P  7.15600000E-01  1.000000
 
  7 P  2.14000000E-01  1.000000
 
  8 D  2.31400000E+00  1.000000
 
  9 D  6.45000000E-01  1.000000
 
 10 F  1.42800000E+00  1.000000
 
  N (Nitrogen)
  ------------
            Exponent  Coefficients 
       -------------- ---------------------------------------------------------
  1 S  1.14200000E+04  0.000523
  1 S  1.71200000E+03  0.004045
  1 S  3.89300000E+02  0.020775
  1 S  1.10000000E+02  0.080727
  1 S  3.55700000E+01  0.233074
  1 S  1.25400000E+01  0.433501
  1 S  4.64400000E+00  0.347472
  1 S  5.11800000E-01 -0.008508
 
  2 S  1.14200000E+04 -0.000115
  2 S  1.71200000E+03 -0.000895
  2 S  3.89300000E+02 -0.004624
  2 S  1.10000000E+02 -0.018528
  2 S  3.55700000E+01 -0.057339
  2 S  1.25400000E+01 -0.132076
  2 S  4.64400000E+00 -0.172510
  2 S  5.11800000E-01  0.599944
 
  3 S  1.29300000E+00  1.000000
 
  4 S  1.78700000E-01  1.000000
 
  5 P  2.66300000E+01  0.014670
  5 P  5.94800000E+00  0.091764
  5 P  1.74200000E+00  0.298683
 
  6 P  5.55000000E-01  1.000000
 
  7 P  1.72500000E-01  1.000000
 
  8 D  1.65400000E+00  1.000000
 
  9 D  4.69000000E-01  1.000000
 
 10 F  1.09300000E+00  1.000000
 


 Summary of "ao basis" -> "" (cartesian)
 ------------------------------------------------------------------------------
       Tag                 Description            Shells   Functions and Types
 ---------------- ------------------------------  ------  ---------------------
 H                          cc-pVTZ                  6       15   3s2p1d
 C                          cc-pVTZ                 10       35   4s3p2d1f
 O                          cc-pVTZ                 10       35   4s3p2d1f
 N                          cc-pVTZ                 10       35   4s3p2d1f


                                 NWChem SCF Module
                                 -----------------
 
 

  ao basis        = "ao basis"
  functions       =   460
  atoms           =    16
  closed shells   =    39
  open shells     =     0
  charge          =   0.00
  wavefunction    = RHF 
  input vectors   = atomic
  output vectors  = ./guanine.movecs
  use symmetry    = T
  symmetry adapt  = T


 Summary of "ao basis" -> "ao basis" (cartesian)
 ------------------------------------------------------------------------------
       Tag                 Description            Shells   Functions and Types
 ---------------- ------------------------------  ------  ---------------------
 H                          cc-pVTZ                  6       15   3s2p1d
 C                          cc-pVTZ                 10       35   4s3p2d1f
 O                          cc-pVTZ                 10       35   4s3p2d1f
 N                          cc-pVTZ                 10       35   4s3p2d1f


      Symmetry analysis of basis
      --------------------------
 
        a'        319
        a"        141
 

 Forming initial guess at       0.5s


 !! The overlap matrix has   9 vectors deemed linearly dependent with
    eigenvalues:
 6.08D-07 7.19D-07 2.35D-06 2.93D-06 3.55D-06 5.18D-06 6.02D-06 8.20D-06
 9.37D-06
 
 
      Superposition of Atomic Density Guess
      -------------------------------------
 
 Sum of atomic energies:        -537.18019628
 
      Non-variational initial energy
      ------------------------------

 Total energy =    -583.653247
 1-e energy   =   -2884.327190
 2-e energy   =    1166.349203
 HOMO         =      -0.647222
 LUMO         =      -0.214243
 
 
      Symmetry analysis of molecular orbitals - initial
      -------------------------------------------------
 
  Numbering of irreducible representations: 
 
     1 a'          2 a"      
 
  Orbital symmetries:
 
     1 a'          2 a'          3 a'          4 a'          5 a'      
     6 a'          7 a'          8 a'          9 a'         10 a'      
    11 a'         12 a'         13 a'         14 a'         15 a'      
    16 a'         17 a"         18 a'         19 a'         20 a'      
    21 a"         22 a'         23 a"         24 a'         25 a'      
    26 a'         27 a'         28 a"         29 a'         30 a'      
    31 a"         32 a'         33 a'         34 a'         35 a"      
    36 a'         37 a"         38 a'         39 a'         40 a"      
    41 a'         42 a"         43 a"         44 a'         45 a'      
    46 a"         47 a'         48 a'         49 a'      
 

 Starting SCF solution at      16.0s



 ----------------------------------------------
         Quadratically convergent ROHF

 Convergence threshold     :          1.000E-04
 Maximum no. of iterations :           30
 Final Fock-matrix accuracy:          1.000E-10
 ----------------------------------------------


 Integral file          = ./guanine.aoints.00
 Record size in doubles =  65536        No. of integs per rec  =  32766
 Max. records in memory =      0        Max. records in file   = 224877
 No. of bits per label  =     16        No. of bits per value  =     64


 #quartets = 4.830D+07 #integrals = 2.810D+09 #direct =  0.0% #cached =100.0%


File balance: exchanges=    18  moved=  1267  time=   9.4


              iter       energy          gnorm     gmax       time
             ----- ------------------- --------- --------- --------
                 1     -509.6237980255  9.85D+00  8.63D-01     32.7
                 2     -512.3100756881  2.38D+00  1.50D-01     37.3
                 3     -512.4533265469  1.33D+00  8.33D-02     42.4
                 4     -512.5066788915  1.39D-01  3.86D-02     59.7
                 5     -512.5125667212  2.55D-02  3.58D-03     83.6
                 6     -512.5126184657  4.02D-04  1.09D-04    114.7
                 7     -512.5126185485  6.68D-06  1.83D-06    145.6


       Final RHF  results 
       ------------------ 

         Total SCF energy =   -512.512618548544
      One-electron energy =  -2920.962363430629
      Two-electron energy =   1274.125004800003
 Nuclear repulsion energy =   1134.324740082082

        Time for solution =    131.0s


 
       Symmetry analysis of molecular orbitals - final
       -----------------------------------------------
 
  Numbering of irreducible representations: 
 
     1 a'          2 a"      
 
  Orbital symmetries:
 
     1 a'          2 a'          3 a'          4 a'          5 a'      
     6 a'          7 a'          8 a'          9 a'         10 a'      
    11 a'         12 a'         13 a'         14 a'         15 a'      
    16 a'         17 a"         18 a'         19 a'         20 a"      
    21 a'         22 a'         23 a'         24 a"         25 a'      
    26 a'         27 a'         28 a'         29 a"         30 a'      
    31 a'         32 a'         33 a"         34 a'         35 a"      
    36 a'         37 a"         38 a'         39 a'         40 a'      
    41 a'         42 a"         43 a'         44 a'         45 a'      
    46 a"         47 a'         48 a"         49 a'      
 
             Final eigenvalues
             -----------------

              1      
    1  -20.4982
    2  -15.6476
    3  -15.6179
    4  -15.5606
    5  -15.5564
    6  -15.5117
    7  -11.5845
    8  -11.5219
    9  -11.4798
   10  -11.3506
   11  -11.3187
   12   -2.2891
   13   -2.2515
   14   -1.9318
   15   -1.8139
   16   -1.7016
   17   -1.6441
   18   -1.6224
   19   -1.6003
   20   -1.3546
   21   -1.3397
   22   -1.2090
   23   -1.1916
   24   -1.1737
   25   -1.1007
   26   -0.9854
   27   -0.9047
   28   -0.8506
   29   -0.7920
   30   -0.7772
   31   -0.7270
   32   -0.6772
   33   -0.6328
   34   -0.5675
   35   -0.5338
   36   -0.3386
   37   -0.2963
   38   -0.2306
   39   -0.1705
   40    0.1120
   41    0.1295
   42    0.1382
   43    0.1627
   44    0.1816
   45    0.2065
   46    0.2418
   47    0.2490
   48    0.2968
   49    0.2978
 
                       ROHF Final Molecular Orbital Analysis
                       -------------------------------------
 
 Vector   20  Occ=2.000000D+00  E=-1.354560D+00  Symmetry=a"
              MO Center=  8.0D-02, -1.7D-01,  4.9D-15, r^2= 1.6D+00
   Bfn.  Coefficient  Atom+Function         Bfn.  Coefficient  Atom+Function  
  ----- ------------  ---------------      ----- ------------  ---------------
   317     -0.187688  11 C  pz                7      0.178777   1 C  pz        
   267     -0.168211   9 N  pz               42      0.165209   2 N  pz        
 
 Vector   21  Occ=2.000000D+00  E=-1.339717D+00  Symmetry=a'
              MO Center=  7.5D-01, -9.4D-01,  2.6D-15, r^2= 8.7D-01
   Bfn.  Coefficient  Atom+Function         Bfn.  Coefficient  Atom+Function  
  ----- ------------  ---------------      ----- ------------  ---------------
    87      0.338618   4 C  s                 2     -0.306011   1 C  s         
    41      0.281884   2 N  py               72     -0.253098   3 H  s         
     5     -0.238115   1 C  px              347      0.205005  12 N  s         
    37     -0.189167   2 N  s                90      0.176270   4 C  px        
    94     -0.153757   4 C  py        
 
 Vector   22  Occ=2.000000D+00  E=-1.208967D+00  Symmetry=a'
              MO Center= -6.2D-02, -1.3D+00, -3.3D-15, r^2= 1.4D+00
   Bfn.  Coefficient  Atom+Function         Bfn.  Coefficient  Atom+Function  
  ----- ------------  ---------------      ----- ------------  ---------------
   157      0.389480   6 N  s                 2      0.374647   1 C  s         
     5     -0.262040   1 C  px               39     -0.210784   2 N  s         
   159      0.198319   6 N  s               149      0.177400   5 C  fxyy      
    44     -0.166601   2 N  py              349      0.166720  12 N  s         
    88      0.165193   4 C  s                37     -0.164059   2 N  s         
 
 Vector   23  Occ=2.000000D+00  E=-1.191649D+00  Symmetry=a'
              MO Center=  4.1D-01,  1.3D+00, -4.8D-15, r^2= 1.6D+00
   Bfn.  Coefficient  Atom+Function         Bfn.  Coefficient  Atom+Function  
  ----- ------------  ---------------      ----- ------------  ---------------
   312      0.341741  11 C  s               382     -0.281916  13 N  s         
   386     -0.268168  13 N  py              432     -0.246652  15 H  s         
   431     -0.236913  15 H  s               446     -0.172937  16 H  s         
 
 Vector   24  Occ=2.000000D+00  E=-1.173673D+00  Symmetry=a"
              MO Center= -2.9D-01,  3.1D-01,  5.4D-15, r^2= 1.3D+00
   Bfn.  Coefficient  Atom+Function         Bfn.  Coefficient  Atom+Function  
  ----- ------------  ---------------      ----- ------------  ---------------
   197      0.262306   7 C  pz              232      0.197161   8 O  pz        
   317     -0.181951  11 C  pz              352     -0.171755  12 N  pz        
 
 Vector   25  Occ=2.000000D+00  E=-1.100659D+00  Symmetry=a'
              MO Center=  3.4D-02,  1.2D-01,  4.7D-15, r^2= 1.1D+00
   Bfn.  Coefficient  Atom+Function         Bfn.  Coefficient  Atom+Function  
  ----- ------------  ---------------      ----- ------------  ---------------
   264      0.350427   9 N  s               347     -0.308398  12 N  s         
   195      0.291815   7 C  px              199     -0.283815   7 C  py        
   108     -0.261989   4 C  dyy             262      0.260065   9 N  s         
    91     -0.257307   4 C  py              192      0.251880   7 C  s         
    93      0.240177   4 C  px              213     -0.234257   7 C  dyy       
 
 Vector   26  Occ=2.000000D+00  E=-9.853989D-01  Symmetry=a'
              MO Center= -3.6D-01, -8.6D-03,  6.4D-16, r^2= 1.6D+00
   Bfn.  Coefficient  Atom+Function         Bfn.  Coefficient  Atom+Function  
  ----- ------------  ---------------      ----- ------------  ---------------
   384      0.266480  13 N  s               227      0.251916   8 O  s         
   126      0.249191   5 C  py              161     -0.235496   6 N  py        
   157     -0.219488   6 N  s               297     -0.219393  10 H  s         
   192      0.202290   7 C  s               122     -0.197685   5 C  s         
   349     -0.196468  12 N  s               296     -0.186465  10 H  s         
 
 Vector   27  Occ=2.000000D+00  E=-9.046650D-01  Symmetry=a'
              MO Center= -1.5D-01,  2.9D-01, -2.9D-15, r^2= 7.4D-01
   Bfn.  Coefficient  Atom+Function         Bfn.  Coefficient  Atom+Function  
  ----- ------------  ---------------      ----- ------------  ---------------
   297      0.453600  10 H  s               312     -0.376954  11 C  s         
   122      0.336719   5 C  s               126      0.311800   5 C  py        
    87      0.302952   4 C  s               316      0.249908  11 C  py        
   265     -0.246757   9 N  px              264     -0.227620   9 N  s         
   195      0.200995   7 C  px              152      0.182848   5 C  fyyy      
 
 Vector   28  Occ=2.000000D+00  E=-8.506150D-01  Symmetry=a'
              MO Center=  1.7D-01,  9.1D-01, -5.8D-15, r^2= 1.6D+00
   Bfn.  Coefficient  Atom+Function         Bfn.  Coefficient  Atom+Function  
  ----- ------------  ---------------      ----- ------------  ---------------
   297      0.541381  10 H  s               447      0.499383  16 H  s         
   432     -0.381947  15 H  s               281      0.327744   9 N  dxy       
   385      0.287973  13 N  px               72     -0.278342   3 H  s         
   129     -0.229676   5 C  py              446      0.227351  16 H  s         
   199     -0.214473   7 C  py              315     -0.206217  11 C  px        
 
 Vector   29  Occ=2.000000D+00  E=-7.920298D-01  Symmetry=a"
              MO Center=  2.6D-01,  4.2D-02,  1.6D-14, r^2= 1.9D+00
   Bfn.  Coefficient  Atom+Function         Bfn.  Coefficient  Atom+Function  
  ----- ------------  ---------------      ----- ------------  ---------------
    92      0.217822   4 C  pz                7     -0.195810   1 C  pz        
   387     -0.185060  13 N  pz               95      0.170866   4 C  pz        
   162     -0.170787   6 N  pz              352      0.163538  12 N  pz        
   165     -0.157685   6 N  pz        
 
 Vector   30  Occ=2.000000D+00  E=-7.772040D-01  Symmetry=a'
              MO Center=  6.1D-01, -5.0D-01, -3.9D-15, r^2= 1.5D+00
   Bfn.  Coefficient  Atom+Function         Bfn.  Coefficient  Atom+Function  
  ----- ------------  ---------------      ----- ------------  ---------------
    72      0.410575   3 H  s               417     -0.276816  14 H  s         
    40      0.243300   2 N  px               71      0.235187   3 H  s         
     5     -0.233417   1 C  px              211      0.223222   7 C  dxy       
   199      0.215203   7 C  py              351      0.209951  12 N  py        
   112     -0.203491   4 C  fxxy             90     -0.199957   4 C  px        
 
 Vector   31  Occ=2.000000D+00  E=-7.270067D-01  Symmetry=a'
              MO Center=  3.3D-01,  2.5D-01, -1.0D-14, r^2= 2.0D+00
   Bfn.  Coefficient  Atom+Function         Bfn.  Coefficient  Atom+Function  
  ----- ------------  ---------------      ----- ------------  ---------------
   432      0.459876  15 H  s               384     -0.333336  13 N  s         
   337     -0.286421  11 C  fxxy             91     -0.269800   4 C  py        
   316     -0.262180  11 C  py              351      0.246468  12 N  py        
   417      0.238916  14 H  s               217     -0.228401   7 C  fxxy      
    72     -0.207476   3 H  s                39      0.198364   2 N  s         
 
 Vector   32  Occ=2.000000D+00  E=-6.772303D-01  Symmetry=a'
              MO Center= -1.6D+00,  6.1D-02,  8.6D-15, r^2= 6.6D-01
   Bfn.  Coefficient  Atom+Function         Bfn.  Coefficient  Atom+Function  
  ----- ------------  ---------------      ----- ------------  ---------------
   233      0.391846   8 O  px              230      0.364046   8 O  px        
   192      0.331091   7 C  s               229     -0.269889   8 O  s         
   297     -0.257756  10 H  s               264     -0.249173   9 N  s         
   198      0.234977   7 C  px              195     -0.231956   7 C  px        
   108      0.210024   4 C  dyy             417     -0.176379  14 H  s         
 
 Vector   33  Occ=2.000000D+00  E=-6.328100D-01  Symmetry=a"
              MO Center=  1.5D-01, -6.5D-01,  8.5D-15, r^2= 1.3D+00
   Bfn.  Coefficient  Atom+Function         Bfn.  Coefficient  Atom+Function  
  ----- ------------  ---------------      ----- ------------  ---------------
    42      0.273107   2 N  pz              127     -0.243011   5 C  pz        
    45      0.205383   2 N  pz              130     -0.206128   5 C  pz        
   109     -0.176088   4 C  dyz             162     -0.173699   6 N  pz        
   133     -0.170332   5 C  pz        
 
 Vector   34  Occ=2.000000D+00  E=-5.675386D-01  Symmetry=a'
              MO Center=  1.8D-01, -9.3D-01, -4.8D-15, r^2= 1.3D+00
   Bfn.  Coefficient  Atom+Function         Bfn.  Coefficient  Atom+Function  
  ----- ------------  ---------------      ----- ------------  ---------------
   417      0.481486  14 H  s               349     -0.431696  12 N  s         
     6     -0.343185   1 C  py               87      0.324856   4 C  s         
    72      0.276553   3 H  s                 2     -0.270364   1 C  s         
   114     -0.270769   4 C  fxyy             44      0.265881   2 N  py        
   297     -0.262145  10 H  s               122      0.255174   5 C  s         
 
 Vector   35  Occ=2.000000D+00  E=-5.337519D-01  Symmetry=a"
              MO Center= -3.6D-01,  7.4D-01,  4.8D-15, r^2= 1.6D+00
   Bfn.  Coefficient  Atom+Function         Bfn.  Coefficient  Atom+Function  
  ----- ------------  ---------------      ----- ------------  ---------------
   270      0.262537   9 N  pz              267      0.258009   9 N  pz        
   232     -0.236537   8 O  pz              235     -0.226759   8 O  pz        
   273      0.220486   9 N  pz              212      0.212687   7 C  dxz       
   387     -0.209795  13 N  pz              390     -0.205618  13 N  pz        
   393     -0.174863  13 N  pz        
 
 Vector   36  Occ=2.000000D+00  E=-3.386358D-01  Symmetry=a'
              MO Center=  4.1D-01, -4.3D-01, -4.0D-14, r^2= 2.3D+00
   Bfn.  Coefficient  Atom+Function         Bfn.  Coefficient  Atom+Function  
  ----- ------------  ---------------      ----- ------------  ---------------
   349      0.543529  12 N  s               384      0.493113  13 N  s         
   159     -0.464294   6 N  s                39      0.398276   2 N  s         
    72     -0.323482   3 H  s                96     -0.323050   4 C  px        
   357     -0.313047  12 N  py              432     -0.307832  15 H  s         
   356     -0.282287  12 N  px              331      0.277850  11 C  dxy       
 
 Vector   37  Occ=2.000000D+00  E=-2.962541D-01  Symmetry=a"
              MO Center=  1.7D-01,  6.6D-03,  2.0D-14, r^2= 2.3D+00
   Bfn.  Coefficient  Atom+Function         Bfn.  Coefficient  Atom+Function  
  ----- ------------  ---------------      ----- ------------  ---------------
   358      0.349139  12 N  pz              355      0.273055  12 N  pz        
   393     -0.253100  13 N  pz               13      0.249246   1 C  pz        
    10      0.243824   1 C  pz               95     -0.221282   4 C  pz        
   390     -0.222085  13 N  pz              352      0.216219  12 N  pz        
   127     -0.192798   5 C  pz              130     -0.192778   5 C  pz        
 
 Vector   38  Occ=2.000000D+00  E=-2.305951D-01  Symmetry=a'
              MO Center= -3.7D-02, -2.7D-01,  7.9D-16, r^2= 2.7D+00
   Bfn.  Coefficient  Atom+Function         Bfn.  Coefficient  Atom+Function  
  ----- ------------  ---------------      ----- ------------  ---------------
   349      1.883932  12 N  s               159      1.094083   6 N  s         
   264      0.942852   9 N  s                39      0.714655   2 N  s         
    12     -0.673935   1 C  py              140     -0.652109   5 C  dxx       
   198     -0.606666   7 C  px              314     -0.609151  11 C  s         
     4     -0.562116   1 C  s               322      0.520899  11 C  py        
 
 Vector   39  Occ=2.000000D+00  E=-1.705397D-01  Symmetry=a'
              MO Center= -9.8D-01, -7.8D-02,  1.6D-14, r^2= 2.2D+00
   Bfn.  Coefficient  Atom+Function         Bfn.  Coefficient  Atom+Function  
  ----- ------------  ---------------      ----- ------------  ---------------
   159     -1.256882   6 N  s               321     -1.217373  11 C  px        
   271     -1.204709   9 N  px              202     -1.195748   7 C  py        
    97      1.166599   4 C  py              314      1.091589  11 C  s         
    72      0.787529   3 H  s                96      0.779393   4 C  px        
   298     -0.779957  10 H  s                46     -0.654544   2 N  px        
 
 Vector   40  Occ=0.000000D+00  E= 1.119841D-01  Symmetry=a'
              MO Center=  7.3D-02,  1.8D+00,  9.4D-14, r^2= 6.9D+00
   Bfn.  Coefficient  Atom+Function         Bfn.  Coefficient  Atom+Function  
  ----- ------------  ---------------      ----- ------------  ---------------
   349      6.764917  12 N  s               384     -4.763023  13 N  s         
   322      4.000494  11 C  py              433     -3.749939  15 H  s         
   392      3.241737  13 N  py              321      3.061041  11 C  px        
   132      2.939333   5 C  py              418     -2.705205  14 H  s         
    97     -2.545385   4 C  py              159      2.263457   6 N  s         
 
 Vector   41  Occ=0.000000D+00  E= 1.294648D-01  Symmetry=a'
              MO Center=  1.1D+00, -1.3D+00,  5.4D-15, r^2= 9.1D+00
   Bfn.  Coefficient  Atom+Function         Bfn.  Coefficient  Atom+Function  
  ----- ------------  ---------------      ----- ------------  ---------------
   418      7.683090  14 H  s                12      5.733731   1 C  py        
   384     -5.105476  13 N  s               322      4.037792  11 C  py        
     4     -3.224868   1 C  s               159     -2.723487   6 N  s         
   433     -2.317299  15 H  s               349      2.069106  12 N  s         
   167     -2.056129   6 N  py              131     -1.988527   5 C  px        
 
 Vector   42  Occ=0.000000D+00  E= 1.382074D-01  Symmetry=a"
              MO Center=  2.0D-01,  1.6D-01, -6.3D-14, r^2= 5.8D+00
   Bfn.  Coefficient  Atom+Function         Bfn.  Coefficient  Atom+Function  
  ----- ------------  ---------------      ----- ------------  ---------------
   133     -2.509954   5 C  pz               98      2.466836   4 C  pz        
   203      2.155841   7 C  pz              273     -1.846974   9 N  pz        
   323      1.844524  11 C  pz              358     -1.699656  12 N  pz        
    48     -1.130648   2 N  pz               13      0.929618   1 C  pz        
    95      0.870833   4 C  pz              109      0.706907   4 C  dyz       
 
 Vector   43  Occ=0.000000D+00  E= 1.627160D-01  Symmetry=a'
              MO Center=  1.2D+00,  7.1D-01, -2.9D-15, r^2= 7.4D+00
   Bfn.  Coefficient  Atom+Function         Bfn.  Coefficient  Atom+Function  
  ----- ------------  ---------------      ----- ------------  ---------------
   384      6.131304  13 N  s                39      5.945285   2 N  s         
   314     -5.603274  11 C  s               349      5.561370  12 N  s         
     4     -4.578111   1 C  s               448      4.325405  16 H  s         
    73      3.611450   3 H  s               322     -3.563309  11 C  py        
    12     -3.524432   1 C  py              159      3.436700   6 N  s         
 
 Vector   44  Occ=0.000000D+00  E= 1.815816D-01  Symmetry=a'
              MO Center=  9.6D-02,  6.2D-01,  8.0D-14, r^2= 8.3D+00
   Bfn.  Coefficient  Atom+Function         Bfn.  Coefficient  Atom+Function  
  ----- ------------  ---------------      ----- ------------  ---------------
   264     11.536812   9 N  s                 4     -7.090266   1 C  s         
   314     -7.055356  11 C  s               349      4.771574  12 N  s         
   321      4.663322  11 C  px              271      4.540325   9 N  px        
   357     -4.447525  12 N  py               39      3.646887   2 N  s         
   448     -3.654425  16 H  s               384      3.599981  13 N  s         
 
 Vector   45  Occ=0.000000D+00  E= 2.064513D-01  Symmetry=a'
              MO Center=  9.2D-01, -1.0D+00,  8.5D-14, r^2= 1.1D+01
   Bfn.  Coefficient  Atom+Function         Bfn.  Coefficient  Atom+Function  
  ----- ------------  ---------------      ----- ------------  ---------------
   418      9.481986  14 H  s                12      6.227183   1 C  py        
    73     -5.429054   3 H  s               264     -4.003073   9 N  s         
   298     -3.720394  10 H  s                46      3.601756   2 N  px        
   321     -3.471841  11 C  px                4     -3.336143   1 C  s         
    39     -3.156698   2 N  s               349      3.016419  12 N  s         
 
 Vector   46  Occ=0.000000D+00  E= 2.417695D-01  Symmetry=a"
              MO Center=  3.3D-02, -5.8D-01, -2.3D-14, r^2= 6.7D+00
   Bfn.  Coefficient  Atom+Function         Bfn.  Coefficient  Atom+Function  
  ----- ------------  ---------------      ----- ------------  ---------------
   323     -2.155151  11 C  pz              203     -2.141741   7 C  pz        
    13      1.965317   1 C  pz              133      1.884793   5 C  pz        
   168     -1.714726   6 N  pz               48     -1.583131   2 N  pz        
   142     -1.517865   5 C  dxz             273      1.138451   9 N  pz        
    98      0.897847   4 C  pz              200     -0.892795   7 C  pz        
 
 Vector   47  Occ=0.000000D+00  E= 2.490210D-01  Symmetry=a'
              MO Center= -2.7D-02,  1.6D+00,  1.2D-14, r^2= 8.9D+00
   Bfn.  Coefficient  Atom+Function         Bfn.  Coefficient  Atom+Function  
  ----- ------------  ---------------      ----- ------------  ---------------
   433      8.426281  15 H  s               298     -7.234243  10 H  s         
   272      5.435529   9 N  py              202      5.107642   7 C  py        
   448     -4.687493  16 H  s               322     -4.253088  11 C  py        
     4      3.931489   1 C  s               194      3.933163   7 C  s         
   131     -3.244846   5 C  px               39     -3.227341   2 N  s         
 
 Vector   48  Occ=0.000000D+00  E= 2.968403D-01  Symmetry=a"
              MO Center= -1.4D-01, -3.7D-02,  1.0D-13, r^2= 6.2D+00
   Bfn.  Coefficient  Atom+Function         Bfn.  Coefficient  Atom+Function  
  ----- ------------  ---------------      ----- ------------  ---------------
    98      3.802259   4 C  pz              133     -2.182895   5 C  pz        
   203     -2.147666   7 C  pz              358     -1.547757  12 N  pz        
   323      1.416100  11 C  pz              168      1.305781   6 N  pz        
   142     -1.225578   5 C  dxz              13     -1.130780   1 C  pz        
   238      0.896828   8 O  pz               95      0.796545   4 C  pz        
 
 Vector   49  Occ=0.000000D+00  E= 2.978464D-01  Symmetry=a'
              MO Center= -1.9D-01,  3.0D-01,  4.3D-15, r^2= 8.4D+00
   Bfn.  Coefficient  Atom+Function         Bfn.  Coefficient  Atom+Function  
  ----- ------------  ---------------      ----- ------------  ---------------
   322     14.917064  11 C  py              384    -12.348363  13 N  s         
   159      8.499664   6 N  s               264     -7.893921   9 N  s         
    97      7.735263   4 C  py                4     -5.709968   1 C  s         
    39      5.397860   2 N  s               271     -4.900300   9 N  px        
   418      4.329821  14 H  s               124      4.082066   5 C  s         
 
 Vector   50  Occ=0.000000D+00  E= 3.172369D-01  Symmetry=a'
              MO Center=  4.1D-01, -2.6D-01,  2.3D-14, r^2= 8.2D+00
   Bfn.  Coefficient  Atom+Function         Bfn.  Coefficient  Atom+Function  
  ----- ------------  ---------------      ----- ------------  ---------------
    39     13.052254   2 N  s                96    -10.874860   4 C  px        
    97      9.208559   4 C  py              132     -7.633674   5 C  py        
   321     -7.193536  11 C  px                4     -5.991471   1 C  s         
   264     -5.876408   9 N  s               194     -5.638507   7 C  s         
    73      5.163029   3 H  s               106     -4.963296   4 C  dxy       
 
 Vector   51  Occ=0.000000D+00  E= 3.411446D-01  Symmetry=a'
              MO Center=  3.0D-01, -1.5D+00, -5.0D-14, r^2= 8.3D+00
   Bfn.  Coefficient  Atom+Function         Bfn.  Coefficient  Atom+Function  
  ----- ------------  ---------------      ----- ------------  ---------------
    11      8.444402   1 C  px               47      7.773449   2 N  py        
    39     -7.347503   2 N  s               159      5.155218   6 N  s         
   298      4.566692  10 H  s                73     -4.424483   3 H  s         
   167     -4.317723   6 N  py              314     -4.224564  11 C  s         
    89     -4.184975   4 C  s                96     -3.758134   4 C  px        
 
 Vector   52  Occ=0.000000D+00  E= 3.823890D-01  Symmetry=a"
              MO Center=  3.8D-01, -1.9D-01,  1.1D-12, r^2= 6.5D+00
   Bfn.  Coefficient  Atom+Function         Bfn.  Coefficient  Atom+Function  
  ----- ------------  ---------------      ----- ------------  ---------------
    98      3.439863   4 C  pz               13     -2.036679   1 C  pz        
   323     -1.877215  11 C  pz              334      1.226182  11 C  dyz       
   320      1.063527  11 C  pz              130     -1.000903   5 C  pz        
    24     -0.957937   1 C  dyz             203      0.896865   7 C  pz        
   168      0.803360   6 N  pz              133     -0.785922   5 C  pz        
 
 Vector   53  Occ=0.000000D+00  E= 4.105085D-01  Symmetry=a'
              MO Center= -1.1D+00,  3.5D-01, -2.2D-14, r^2= 7.6D+00
   Bfn.  Coefficient  Atom+Function         Bfn.  Coefficient  Atom+Function  
  ----- ------------  ---------------      ----- ------------  ---------------
   349     12.707836  12 N  s               201     11.219425   7 C  px        
   264    -10.886523   9 N  s               131     -9.966750   5 C  px        
    97     -6.933092   4 C  py              314     -6.731430  11 C  s         
   159     -5.019273   6 N  s               229      4.613518   8 O  s         
   143     -4.099911   5 C  dyy             448      4.047142  16 H  s         
 
 Vector   54  Occ=0.000000D+00  E= 4.196340D-01  Symmetry=a"
              MO Center= -1.5D-01, -1.1D-02, -1.6D-13, r^2= 6.6D+00
   Bfn.  Coefficient  Atom+Function         Bfn.  Coefficient  Atom+Function  
  ----- ------------  ---------------      ----- ------------  ---------------
   133     11.241577   5 C  pz               98     -6.616699   4 C  pz        
   203     -6.294012   7 C  pz              323      3.788852  11 C  pz        
   168     -2.037589   6 N  pz              130      1.487222   5 C  pz        
   214      1.365643   7 C  dyz             393     -1.151743  13 N  pz        
   107      1.141022   4 C  dxz              48      1.073892   2 N  pz        
 
 Vector   55  Occ=0.000000D+00  E= 4.407585D-01  Symmetry=a'
              MO Center= -3.2D-02,  1.8D-02, -1.4D-12, r^2= 8.7D+00
   Bfn.  Coefficient  Atom+Function         Bfn.  Coefficient  Atom+Function  
  ----- ------------  ---------------      ----- ------------  ---------------
   322     14.988632  11 C  py              159    -13.301828   6 N  s         
   384    -12.671229  13 N  s               314     12.033216  11 C  s         
     4      9.214254   1 C  s               132     -7.581530   5 C  py        
    39     -6.783027   2 N  s               349      6.068614  12 N  s         
   272     -5.922579   9 N  py              433     -4.593083  15 H  s         
 
 Vector   56  Occ=0.000000D+00  E= 4.645947D-01  Symmetry=a'
              MO Center= -1.8D-01,  6.4D-02,  1.9D-14, r^2= 8.9D+00
   Bfn.  Coefficient  Atom+Function         Bfn.  Coefficient  Atom+Function  
  ----- ------------  ---------------      ----- ------------  ---------------
   349     14.554094  12 N  s               131     10.430881   5 C  px        
     4      8.735454   1 C  s                97     -7.801266   4 C  py        
   167      6.906385   6 N  py              202      6.826082   7 C  py        
   384     -6.834110  13 N  s               201     -6.604886   7 C  px        
    39     -6.459722   2 N  s               322      5.849893  11 C  py        
 
 Vector   57  Occ=0.000000D+00  E= 4.973669D-01  Symmetry=a"
              MO Center= -2.0D-01,  3.8D-02,  2.3D-13, r^2= 4.6D+00
   Bfn.  Coefficient  Atom+Function         Bfn.  Coefficient  Atom+Function  
  ----- ------------  ---------------      ----- ------------  ---------------
   323      3.340753  11 C  pz              203      3.187818   7 C  pz        
   273     -3.165572   9 N  pz               98     -2.913894   4 C  pz        
    48      2.187685   2 N  pz              200      1.958910   7 C  pz        
   393     -1.917627  13 N  pz              320      1.633884  11 C  pz        
   107     -1.438457   4 C  dxz             168     -1.264022   6 N  pz        
 
 Vector   58  Occ=0.000000D+00  E= 4.977467D-01  Symmetry=a'
              MO Center=  1.1D-01, -6.0D-03, -4.9D-13, r^2= 7.8D+00
   Bfn.  Coefficient  Atom+Function         Bfn.  Coefficient  Atom+Function  
  ----- ------------  ---------------      ----- ------------  ---------------
    96     16.231244   4 C  px              264    -14.885160   9 N  s         
    39    -13.355002   2 N  s               384    -12.654792  13 N  s         
   321    -10.831560  11 C  px              357     10.420646  12 N  py        
   194      8.904070   7 C  s                 4      8.155839   1 C  s         
    12      7.798960   1 C  py               73     -7.416145   3 H  s         
 
 Vector   59  Occ=0.000000D+00  E= 5.190476D-01  Symmetry=a"
              MO Center=  2.4D-02,  6.8D-01,  4.9D-14, r^2= 5.6D+00
   Bfn.  Coefficient  Atom+Function         Bfn.  Coefficient  Atom+Function  
  ----- ------------  ---------------      ----- ------------  ---------------
   203      5.526763   7 C  pz              273     -3.735777   9 N  pz        
   133     -3.566639   5 C  pz              358      3.492253  12 N  pz        
   323     -2.995569  11 C  pz              393      2.663634  13 N  pz        
   332     -2.036241  11 C  dxz             109     -1.534225   4 C  dyz       
   168      1.324213   6 N  pz              142     -1.292071   5 C  dxz       
 

 center of mass
 --------------
 x =  -0.02667189 y =  -0.02202594 z =   0.00000000

 moments of inertia (a.u.)
 ------------------
         460.866086407341           0.000000000000           0.000000000000
           0.000000000000         246.925740491159           0.000000000000
           0.000000000000           0.000000000000         707.791826898500
 
  Mulliken analysis of the total density
  --------------------------------------

    Atom       Charge   Shell Charges
 -----------   ------   -------------------------------------------------------
    1 C    6     7.35   1.93  1.13  0.06  0.28  2.20 -0.41  0.68  0.22  0.36  0.91
    2 N    7     5.44   1.95  1.14  0.12 -0.32  2.01  0.84 -0.48  0.14 -0.04  0.08
    3 H    1     1.90   0.69  0.70  0.28  0.08  0.01  0.13
    4 C    6     7.21   1.93  1.10 -0.06  0.19  2.39 -0.79  0.51  0.61  0.89  0.45
    5 C    6     5.92   1.94  1.08 -0.07  0.01  2.39 -0.62  0.54  0.58 -0.09  0.16
    6 N    7     5.83   1.95  1.05  0.20 -0.81  1.87  0.86  0.43  0.15  0.06  0.07
    7 C    6     7.99   1.92  1.16 -0.12  0.06  2.46 -0.44  0.98  0.53  0.96  0.47
    8 O    8     7.63   1.95  1.05  0.27  0.20  1.76  1.75  0.54  0.07 -0.02  0.06
    9 N    7     4.76   1.95  1.13  0.12 -0.46  2.07  0.53 -0.62  0.15 -0.21  0.10
   10 H    1     2.01   0.71  0.60  0.49  0.09 -0.01  0.13
   11 C    6     7.57   1.93  1.13  0.11  0.45  2.41 -0.62 -0.39  0.60  1.19  0.77
   12 N    7     5.13   1.95  1.05  0.20 -1.47  1.91  0.89  0.40  0.15 -0.07  0.12
   13 N    7     5.96   1.95  1.15  0.05 -0.06  1.88  1.02  0.06  0.05 -0.13 -0.01
   14 H    1     0.45   0.59 -0.01  0.11  0.04 -0.23 -0.05
   15 H    1     1.27   0.69  0.40  0.02  0.10 -0.04  0.11
   16 H    1     1.57   0.69  0.42  0.33  0.09 -0.06  0.10
 
       Multipole analysis of the density wrt the origin
       ------------------------------------------------
 
     L   x y z        total         open         nuclear
     -   - - -        -----         ----         -------
     0   0 0 0     -0.000000      0.000000     78.000000
 
     1   1 0 0      1.326360      0.000000      0.000000
     1   0 1 0      0.881346      0.000000     -0.000000
     1   0 0 1     -0.000000      0.000000      0.000000
 
     2   2 0 0    -45.693451      0.000000    129.734918
     2   1 1 0     -2.913512      0.000000     -1.353792
     2   1 0 1      0.000000      0.000000      0.000000
     2   0 2 0    -35.170201      0.000000    253.986778
     2   0 1 1     -0.000000      0.000000      0.000000
     2   0 0 2    -33.430974      0.000000      0.000000
 

------------------------------------------------------------
EAF file 0: "./guanine.aoints.00" size=2367160320 bytes
------------------------------------------------------------
               write      read    awrite     aread      wait
               -----      ----    ------     -----      ----
     calls:     4515        24         0    108336    108336
   data(b): 2.37e+09  1.26e+07  0.00e+00  5.68e+10
   time(s): 0.00e+00  0.00e+00  0.00e+00  0.00e+00  0.00e+00
rate(mb/s): 0.00e+00  0.00e+00
------------------------------------------------------------


 Parallel integral file used   85777 records with       0 large values


 Task  times  cpu:      146.7s     wall:      264.0s
 
 
                                NWChem Input Module
                                -------------------
 
 
 Summary of allocated global arrays
-----------------------------------
  No active global arrays


MA_summarize_allocated_blocks: starting scan ...
MA_summarize_allocated_blocks: scan completed: 0 heap blocks, 0 stack blocks
MA usage statistics:

	allocation statistics:
					      heap	     stack
					      ----	     -----
	current number of blocks	         0	         0
	maximum number of blocks	        17	        14
	current total bytes		         0	         0
	maximum total bytes		     80152	  89028376
	maximum total K-bytes		        81	     89029
	maximum total M-bytes		         1	        90
 
 
                                     CITATION
                                     --------
                Please cite the following reference when publishing
                           results obtained with NWChem:
 
          E. Apra, E. J. Bylaska, W. A. de Jong, N. Govind, K. Kowalski,
       T. P. Straatsma, M. Valiev, H. J. J. van Dam, Y. Alexeev, J. Anchell,
       V. Anisimov, F. W. Aquino, R. Atta-Fynn, J. Autschbach, N. P. Bauman,
     J. C. Becca, D. E. Bernholdt, K. Bhaskaran-Nair, S. Bogatko, P. Borowski,
         J. Boschen, J. Brabec, A. Bruner, E. Cauet, Y. Chen, G. N. Chuev,
      C. J. Cramer, J. Daily, M. J. O. Deegan, T. H. Dunning Jr., M. Dupuis,
   K. G. Dyall, G. I. Fann, S. A. Fischer, A. Fonari, H. Fruchtl, L. Gagliardi,
      J. Garza, N. Gawande, S. Ghosh, K. Glaesemann, A. W. Gotz, J. Hammond,
       V. Helms, E. D. Hermes, K. Hirao, S. Hirata, M. Jacquelin, L. Jensen,
   B. G. Johnson, H. Jonsson, R. A. Kendall, M. Klemm, R. Kobayashi, V. Konkov,
      S. Krishnamoorthy, M. Krishnan, Z. Lin, R. D. Lins, R. J. Littlefield,
      A. J. Logsdail, K. Lopata, W. Ma, A. V. Marenich, J. Martin del Campo,
   D. Mejia-Rodriguez, J. E. Moore, J. M. Mullin, T. Nakajima, D. R. Nascimento,
    J. A. Nichols, P. J. Nichols, J. Nieplocha, A. Otero-de-la-Roza, B. Palmer,
    A. Panyala, T. Pirojsirikul, B. Peng, R. Peverati, J. Pittner, L. Pollack,
   R. M. Richard, P. Sadayappan, G. C. Schatz, W. A. Shelton, D. W. Silverstein,
   D. M. A. Smith, T. A. Soares, D. Song, M. Swart, H. L. Taylor, G. S. Thomas,
            V. Tipparaju, D. G. Truhlar, K. Tsemekhman, T. Van Voorhis,
      A. Vazquez-Mayagoitia, P. Verma, O. Villa, A. Vishnu, K. D. Vogiatzis,
        D. Wang, J. H. Weare, M. J. Williamson, T. L. Windus, K. Wolinski,
        A. T. Wong, Q. Wu, C. Yang, Q. Yu, M. Zacharias, Z. Zhang, Y. Zhao,
                                and R. J. Harrison
                        "NWChem: Past, present, and future
                         J. Chem. Phys. 152, 184102 (2020)
                               doi:10.1063/5.0004997
 
                                      AUTHORS
                                      -------
  E. Apra, E. J. Bylaska, N. Govind, K. Kowalski, M. Valiev, D. Mejia-Rodriguez,
       A. Kunitsa, N. P. Bauman, A. Panyala, W. A. de Jong, T. P. Straatsma,
   H. J. J. van Dam, D. Wang, T. L. Windus, J. Hammond, J. Autschbach, A. Woods,
    K. Bhaskaran-Nair, J. Brabec, K. Lopata, S. A. Fischer, S. Krishnamoorthy,
     M. Jacquelin, W. Ma, M. Klemm, O. Villa, Y. Chen, V. Anisimov, F. Aquino,
     S. Hirata, M. T. Hackler, E. Hermes, L. Jensen, J. E. Moore, J. C. Becca,
      V. Konjkov, T. Risthaus, M. Malagoli, A. Marenich, A. Otero-de-la-Roza,
        J. Mullin, P. Nichols, R. Peverati, J. Pittner, Y. Zhao, P.-D. Fan,
        A. Fonari, M. J. Williamson, R. J. Harrison, J. R. Rehr, M. Dupuis,
     D. Silverstein, D. M. A. Smith, J. Nieplocha, V. Tipparaju, M. Krishnan,
     B. E. Van Kuiken, A. Vazquez-Mayagoitia, M. Swart, Q. Wu, T. Van Voorhis,
     A. A. Auer, M. Nooijen, L. D. Crosby, E. Brown, G. Cisneros, G. I. Fann,
   H. Fruchtl, J. Garza, K. Hirao, R. A. Kendall, J. A. Nichols, K. Tsemekhman,
    K. Wolinski, J. Anchell, D. E. Bernholdt, P. Borowski, T. Clark, D. Clerc,
   H. Dachsel, M. J. O. Deegan, K. Dyall, D. Elwood, E. Glendening, M. Gutowski,
   A. C. Hess, J. Jaffe, B. G. Johnson, J. Ju, R. Kobayashi, R. Kutteh, Z. Lin,
   R. Littlefield, X. Long, B. Meng, T. Nakajima, S. Niu, L. Pollack, M. Rosing,
   K. Glaesemann, G. Sandrone, M. Stave, H. Taylor, G. Thomas, J. H. van Lenthe,
                               A. T. Wong, Z. Zhang.

 Total times  cpu:      146.7s     wall:      264.1s
