 argument  1 = h2o_spin.nw
                                         
                                         
 
 
             Northwest Computational Chemistry Package (NWChem) 7.2.2
             --------------------------------------------------------
 
 
                    Environmental Molecular Sciences Laboratory
                       Pacific Northwest National Laboratory
                                Richland, WA 99352
 
                              Copyright (c) 1994-2022
                       Pacific Northwest National Laboratory
                            Battelle Memorial Institute
 
             NWChem is an open-source computational chemistry package
                        distributed under the terms of the
                      Educational Community License (ECL) 2.0
             A copy of the license is included with this distribution
                              in the LICENSE.TXT file
 
                                  ACKNOWLEDGMENT
                                  --------------

            This software and its documentation were developed at the
            EMSL at Pacific Northwest National Laboratory, a multiprogram
            national laboratory, operated for the U.S. Department of Energy
            by Battelle under Contract Number DE-AC05-76RL01830. Support
            for this work was provided by the Department of Energy Office
            of Biological and Environmental Research, Office of Basic
            Energy Sciences, and the Office of Advanced Scientific Computing.


           Job information
           ---------------

    hostname        = charliebox
    program         = /apps/nwchem/bin/nwchem
    date            = Sun Oct 19 14:54:54 2025

    compiled        = Tue_Apr_23_01:04:59_2024
    source          = /apps/nwchem-7.2.2-release
    nwchem branch   = 7.2.2
    nwchem revision = N/A
    ga revision     = 5.8.0
    use scalapack   = T
    input           = h2o_spin.nw
    prefix          = h2o_spin.
    data base       = ./h2o_spin.db
    status          = startup
    nproc           =       19
    time left       =     -1s



           Memory information
           ------------------

    heap     =   32767994 doubles =    250.0 Mbytes
    stack    =   32767999 doubles =    250.0 Mbytes
    global   =   65536000 doubles =    500.0 Mbytes (distinct from heap & stack)
    total    =  131071993 doubles =   1000.0 Mbytes
    verify   = yes
    hardfail = no 


           Directory information
           ---------------------
 
  0 permanent = .
  0 scratch   = .
 
 
 
 
                                NWChem Input Module
                                -------------------
 
 

 Scaling coordinates for geometry "geometry" by  1.889725989
 (inverse scale =  0.529177249)

 C2V symmetry detected

          ------
          auto-z
          ------
  no constraints, skipping   0.000000000000000E+000
  no constraints, skipping   0.000000000000000E+000
 
 
                             Geometry "geometry" -> ""
                             -------------------------
 
 Output coordinates in angstroms (scale by  1.889725989 to convert to a.u.)
 
  No.       Tag          Charge          X              Y              Z
 ---- ---------------- ---------- -------------- -------------- --------------
    1 O                    8.0000     0.00000000     0.00000000    -0.11726000
    2 H                    1.0000    -0.75720000     0.00000000     0.46904000
    3 H                    1.0000     0.75720000     0.00000000     0.46904000
 
      Atomic Mass 
      ----------- 
 
      O                 15.994910
      H                  1.007825
 

 Effective nuclear repulsion energy (a.u.)       9.1906648371

            Nuclear Dipole moment (a.u.) 
            ----------------------------
        X                 Y               Z
 ---------------- ---------------- ----------------
     0.0000000000     0.0000000000     0.0000000000
 
      Symmetry information
      --------------------
 
 Group name             C2v       
 Group number             16
 Group order               4
 No. of unique centers     2
 
      Symmetry unique atoms
 
     1    2
 


                                Z-matrix (autoz)
                                -------- 

 Units are Angstrom for bonds and degrees for angles
 
      Type          Name      I     J     K     L     M      Value
      ----------- --------  ----- ----- ----- ----- ----- ----------
    1 Stretch                  1     2                       0.95765
    2 Stretch                  1     3                       0.95765
    3 Bend                     2     1     3               104.49876
 
 
            XYZ format geometry
            -------------------
     3
 geometry
 O                     0.00000000     0.00000000    -0.11726000
 H                    -0.75720000     0.00000000     0.46904000
 H                     0.75720000     0.00000000     0.46904000
 
 ==============================================================================
                                internuclear distances
 ------------------------------------------------------------------------------
       center one      |      center two      | atomic units |  angstroms
 ------------------------------------------------------------------------------
    2 H                |   1 O                |     1.80970  |     0.95765
    3 H                |   1 O                |     1.80970  |     0.95765
 ------------------------------------------------------------------------------
                         number of included internuclear distances:          2
 ==============================================================================



 ==============================================================================
                                 internuclear angles
 ------------------------------------------------------------------------------
        center 1       |       center 2       |       center 3       |  degrees
 ------------------------------------------------------------------------------
    2 H                |   1 O                |   3 H                |   104.50
 ------------------------------------------------------------------------------
                            number of included internuclear angles:          1
 ==============================================================================



  library name resolved from: environment
  library file name is: </apps/nwchem/data/libraries/>
  


 Summary of "ao basis" -> "" (cartesian)
 ------------------------------------------------------------------------------
       Tag                 Description            Shells   Functions and Types
 ---------------- ------------------------------  ------  ---------------------
 *                         def2-tzvp                  on all atoms 


 
 
                           NWChem Geometry Optimization
                           ----------------------------
 
 
  no constraints, skipping   0.000000000000000E+000
 maximum gradient threshold         (gmax) =   0.000450
 rms gradient threshold             (grms) =   0.000300
 maximum cartesian step threshold   (xmax) =   0.001800
 rms cartesian step threshold       (xrms) =   0.001200
 fixed trust radius                (trust) =   0.300000
 maximum step size to saddle      (sadstp) =   0.100000
 energy precision                  (eprec) =   5.0D-06
 maximum number of steps          (nptopt) =   40
 initial hessian option           (inhess) =    0
 line search option               (linopt) =    1
 hessian update option            (modupd) =    1
 saddle point option              (modsad) =    0
 initial eigen-mode to follow     (moddir) =    0
 initial variable to follow       (vardir) =    0
 follow first negative mode     (firstneg) =    T
 apply conjugacy                    (opcg) =    F
 source of zmatrix                         =   autoz   


          -------------------
          Energy Minimization
          -------------------

 
 Names of Z-matrix variables 
    1              2              3         
 
 Variables with the same non-blank name are constrained to be equal
 
 
 Using diagonal initial Hessian 
 Scaling for Hessian diagonals: bonds = 1.00  angles = 0.25  torsions = 0.10

          --------
          Step   0
          --------
 
 
                         Geometry "geometry" -> "geometry"
                         ---------------------------------
 
 Output coordinates in angstroms (scale by  1.889725989 to convert to a.u.)
 
  No.       Tag          Charge          X              Y              Z
 ---- ---------------- ---------- -------------- -------------- --------------
    1 O                    8.0000     0.00000000     0.00000000    -0.11726000
    2 H                    1.0000    -0.75720000     0.00000000     0.46904000
    3 H                    1.0000     0.75720000     0.00000000     0.46904000
 
      Atomic Mass 
      ----------- 
 
      O                 15.994910
      H                  1.007825
 

 Effective nuclear repulsion energy (a.u.)       9.1906648371

            Nuclear Dipole moment (a.u.) 
            ----------------------------
        X                 Y               Z
 ---------------- ---------------- ----------------
     0.0000000000     0.0000000000     0.0000000000
 
      Symmetry information
      --------------------
 
 Group name             C2v       
 Group number             16
 Group order               4
 No. of unique centers     2
 
      Symmetry unique atoms
 
     1    2
 
 
                                 NWChem DFT Module
                                 -----------------
 
 
                      Basis "ao basis" -> "ao basis" (cartesian)
                      -----
  O (Oxygen)
  ----------
            Exponent  Coefficients 
       -------------- ---------------------------------------------------------
  1 S  2.70323826E+04  0.000217
  1 S  4.05238714E+03  0.001684
  1 S  9.22327227E+02  0.008740
  1 S  2.61240710E+02  0.035240
  1 S  8.53546414E+01  0.111535
  1 S  3.10350352E+01  0.255890
 
  2 S  1.22608607E+01  0.397687
  2 S  4.99870760E+00  0.246278
 
  3 S  1.17031082E+00  1.000000
 
  4 S  4.64747410E-01  1.000000
 
  5 S  1.85045364E-01  1.000000
 
  6 P  6.32749548E+01  0.006069
  6 P  1.46270494E+01  0.041913
  6 P  4.45012235E+00  0.161538
  6 P  1.52757996E+00  0.357070
 
  7 P  5.29351179E-01  1.000000
 
  8 P  1.74784213E-01  1.000000
 
  9 D  2.31400000E+00  1.000000
 
 10 D  6.45000000E-01  1.000000
 
 11 F  1.42800000E+00  1.000000
 
  H (Hydrogen)
  ------------
            Exponent  Coefficients 
       -------------- ---------------------------------------------------------
  1 S  3.40613410E+01  0.006025
  1 S  5.12357460E+00  0.045021
  1 S  1.16466260E+00  0.201897
 
  2 S  3.27230410E-01  1.000000
 
  3 S  1.03072410E-01  1.000000
 
  4 P  8.00000000E-01  1.000000
 


 Summary of "ao basis" -> "ao basis" (cartesian)
 ------------------------------------------------------------------------------
       Tag                 Description            Shells   Functions and Types
 ---------------- ------------------------------  ------  ---------------------
 O                         def2-tzvp                11       36   5s3p2d1f
 H                         def2-tzvp                 4        6   3s1p




 Summary of "ao basis" -> "ao basis" (cartesian)
 ------------------------------------------------------------------------------
       Tag                 Description            Shells   Functions and Types
 ---------------- ------------------------------  ------  ---------------------
 O                         def2-tzvp                11       36   5s3p2d1f
 H                         def2-tzvp                 4        6   3s1p


      Symmetry analysis of basis
      --------------------------
 
        a1         22
        a2          4
        b1         13
        b2          9
 
  Caching 1-el integrals 
 
            General Information
            -------------------
          SCF calculation type: DFT
          Wavefunction type:  closed shell.
          No. of atoms     :     3
          No. of electrons :    10
           Alpha electrons :     5
            Beta electrons :     5
          Charge           :     0
          Spin multiplicity:     1
          Use of symmetry is: on ; symmetry adaption is: on 
          Maximum number of iterations:  50
          AO basis - number of functions:    48
                     number of shells:    19
          Convergence on energy requested:  1.00D-06
          Convergence on density requested:  1.00D-05
          Convergence on gradient requested:  5.00D-04
 
              XC Information
              --------------
                         PBE0 Method XC Functional
                     Hartree-Fock (Exact) Exchange  0.250          
          PerdewBurkeErnzerhof Exchange Functional  0.750          
            Perdew 1991 LDA Correlation Functional  1.000 local    
           PerdewBurkeErnz. Correlation Functional  1.000 non-local
 
             Grid Information
             ----------------
          Grid used for XC integration:  xfine     
          Radial quadrature: Mura-Knowles        
          Angular quadrature: Lebedev. 
          Tag              B.-S. Rad. Rad. Pts. Rad. Cut. Ang. Pts.
          ---              ---------- --------- --------- ---------
          O                   0.60      100           6.0      1454
          H                   0.35      100           8.0      1202
          Grid pruning is: on 
          Number of quadrature shells:   200
          Spatial weights used:  Erf1
 
          Convergence Information
          -----------------------
          Convergence aids based upon iterative change in 
          total energy or number of iterations. 
          Levelshifting, if invoked, occurs when the 
          HOMO/LUMO gap drops below (HL_TOL):  1.00D-02
          DIIS, if invoked, will attempt to extrapolate 
          using up to (NFOCK): 10 stored Fock matrices.

                    Damping( 0%)  Levelshifting(0.5)       DIIS
                  --------------- ------------------- ---------------
          dE  on:    start            ASAP                start   
          dE off:    2 iters         50 iters            50 iters 

 
      Screening Tolerance Information
      -------------------------------
          Density screening/tol_rho:  1.00D-10
          AO Gaussian exp screening on grid/accAOfunc:  14
          CD Gaussian exp screening on grid/accCDfunc:  20
          XC Gaussian exp screening on grid/accXCfunc:  20
          Schwarz screening/accCoul:  1.00D-08

 
      Superposition of Atomic Density Guess
      -------------------------------------
 
 Sum of atomic energies:         -75.78392565
 
      Non-variational initial energy
      ------------------------------

 Total energy =     -75.948116
 1-e energy   =    -121.745153
 2-e energy   =      36.606372
 HOMO         =      -0.479701
 LUMO         =       0.059069
 
 
      Symmetry analysis of molecular orbitals - initial
      -------------------------------------------------
 
  Numbering of irreducible representations: 
 
     1 a1          2 a2          3 b1          4 b2      
 
  Orbital symmetries:
 
     1 a1          2 a1          3 b1          4 a1          5 b2      
     6 a1          7 b1          8 b1          9 a1         10 b2      
    11 a1         12 b1         13 a1         14 a1         15 a2      
 
  WARNING: movecs_in_org=atomic not equal to movecs_in=./dft.movecs
   Time after variat. SCF:      3.2
   Time prior to 1st pass:      3.2

 #quartets = 1.179D+04 #integrals = 1.970D+05 #direct =  0.0% #cached =100.0%


 Integral file          = ./h2o_spin.aoints.00
 Record size in doubles =  65536        No. of integs per rec  =  43688
 Max. records in memory =      3        Max. records in file   = 224873
 No. of bits per label  =      8        No. of bits per value  =     64


File balance: exchanges=     0  moved=     0  time=   0.0


 Grid_pts file          = ./h2o_spin.gridpts.00
 Record size in doubles =  12289        No. of grid_pts per rec  =   3070
 Max. records in memory =      7        Max. recs in file   =   1199223


           Memory utilization after 1st SCF pass: 
           Heap Space remaining (MW):       32.48            32482226
          Stack Space remaining (MW):       32.77            32767604

   convergence    iter        energy       DeltaE   RMS-Dens  Diis-err    time
 ---------------- ----- ----------------- --------- --------- ---------  ------
 d= 0,ls=0.0,diis     1    -76.3391824273 -8.55D+01  1.22D-02  5.13D-01     4.2
 d= 0,ls=0.0,diis     2    -76.3301703167  9.01D-03  6.78D-03  5.63D-01     4.2
 d= 0,ls=0.0,diis     3    -76.3759629017 -4.58D-02  1.17D-03  2.51D-02     5.0
 d= 0,ls=0.0,diis     4    -76.3778921615 -1.93D-03  1.05D-04  2.29D-04     6.6
 d= 0,ls=0.0,diis     5    -76.3779101631 -1.80D-05  1.11D-05  1.06D-06     6.6
 d= 0,ls=0.0,diis     6    -76.3779102674 -1.04D-07  1.42D-06  1.21D-08     8.1


         Total DFT energy =      -76.377910267352
      One electron energy =     -123.081340642609
           Coulomb energy =       46.770453763421
    Exchange-Corr. energy =       -9.257688225268
 Nuclear repulsion energy =        9.190664837104

 Numeric. integr. density =       10.000000027704

     Total iterative time =      4.9s


 
                  Occupations of the irreducible representations
                  ----------------------------------------------
 
                     irrep           alpha         beta
                     --------     --------     --------
                     a1                3.0          3.0
                     a2                0.0          0.0
                     b1                1.0          1.0
                     b2                1.0          1.0
 
 
                       DFT Final Molecular Orbital Analysis
                       ------------------------------------
 
 Vector    1  Occ=2.000000D+00  E=-1.920608D+01  Symmetry=a1
              MO Center= -3.1D-18,  1.5D-24, -1.2D-01, r^2= 1.5D-02
   Bfn.  Coefficient  Atom+Function         Bfn.  Coefficient  Atom+Function  
  ----- ------------  ---------------      ----- ------------  ---------------
     2      0.635963  1 O  s                  1      0.435868  1 O  s          
     4     -0.091755  1 O  s                  3      0.080735  1 O  s          
 
 Vector    2  Occ=2.000000D+00  E=-1.040357D+00  Symmetry=a1
              MO Center=  7.4D-16,  7.5D-16,  8.1D-02, r^2= 5.0D-01
   Bfn.  Coefficient  Atom+Function         Bfn.  Coefficient  Atom+Function  
  ----- ------------  ---------------      ----- ------------  ---------------
     4      0.477245  1 O  s                  3      0.301532  1 O  s          
     2     -0.226053  1 O  s                  5      0.157655  1 O  s          
     1     -0.097346  1 O  s                 37      0.094290  2 H  s          
    43      0.094290  3 H  s                  8      0.084154  1 O  pz         
    38      0.073415  2 H  s                 44      0.073415  3 H  s          
 
 Vector    3  Occ=2.000000D+00  E=-5.467524D-01  Symmetry=b1
              MO Center= -2.9D-15,  9.3D-18,  9.7D-02, r^2= 7.7D-01
   Bfn.  Coefficient  Atom+Function         Bfn.  Coefficient  Atom+Function  
  ----- ------------  ---------------      ----- ------------  ---------------
     6      0.382397  1 O  px                 9      0.288065  1 O  px         
    38     -0.189328  2 H  s                 44      0.189328  3 H  s          
    37     -0.147796  2 H  s                 43      0.147796  3 H  s          
    12      0.126717  1 O  px                39     -0.056324  2 H  s          
    45      0.056324  3 H  s                 23      0.042570  1 O  dxz        
 
 Vector    4  Occ=2.000000D+00  E=-4.038112D-01  Symmetry=a1
              MO Center=  2.6D-15,  2.9D-16, -1.9D-01, r^2= 7.1D-01
   Bfn.  Coefficient  Atom+Function         Bfn.  Coefficient  Atom+Function  
  ----- ------------  ---------------      ----- ------------  ---------------
     8      0.413229  1 O  pz                11      0.317356  1 O  pz         
    14      0.236096  1 O  pz                 5     -0.216011  1 O  s          
     4     -0.175996  1 O  s                  3     -0.145296  1 O  s          
    38      0.125610  2 H  s                 44      0.125610  3 H  s          
     2      0.086543  1 O  s                 37      0.086889  2 H  s          
 
 Vector    5  Occ=2.000000D+00  E=-3.273486D-01  Symmetry=b2
              MO Center=  2.5D-17, -4.4D-15, -8.7D-02, r^2= 6.7D-01
   Bfn.  Coefficient  Atom+Function         Bfn.  Coefficient  Atom+Function  
  ----- ------------  ---------------      ----- ------------  ---------------
     7      0.471636  1 O  py                10      0.385955  1 O  py         
    13      0.334270  1 O  py                25      0.046939  1 O  dyz        
    41      0.026290  2 H  py                47      0.026290  3 H  py         
 
 Vector    6  Occ=0.000000D+00  E= 3.021764D-02  Symmetry=a1
              MO Center=  2.3D-14,  6.9D-16,  6.9D-01, r^2= 3.5D+00
   Bfn.  Coefficient  Atom+Function         Bfn.  Coefficient  Atom+Function  
  ----- ------------  ---------------      ----- ------------  ---------------
     5      1.291971  1 O  s                 39     -0.978934  2 H  s          
    45     -0.978934  3 H  s                  4      0.509993  1 O  s          
    14      0.357417  1 O  pz                21     -0.200719  1 O  dxx        
    26     -0.178304  1 O  dzz               24     -0.176207  1 O  dyy        
     8      0.158086  1 O  pz                 3     -0.121475  1 O  s          
 
 Vector    7  Occ=0.000000D+00  E= 1.058695D-01  Symmetry=b1
              MO Center= -2.2D-14,  7.1D-30,  7.2D-01, r^2= 4.1D+00
   Bfn.  Coefficient  Atom+Function         Bfn.  Coefficient  Atom+Function  
  ----- ------------  ---------------      ----- ------------  ---------------
    39      1.707646  2 H  s                 45     -1.707646  3 H  s          
    12      0.740649  1 O  px                 6      0.251288  1 O  px         
    23     -0.065040  1 O  dxz               40     -0.041868  2 H  px         
    46     -0.041868  3 H  px                30      0.041637  1 O  fxyy       
    27      0.040222  1 O  fxxx              42      0.040344  2 H  pz         
 
 Vector    8  Occ=0.000000D+00  E= 3.734771D-01  Symmetry=b1
              MO Center= -1.5D-15, -1.7D-32, -9.9D-02, r^2= 2.5D+00
   Bfn.  Coefficient  Atom+Function         Bfn.  Coefficient  Atom+Function  
  ----- ------------  ---------------      ----- ------------  ---------------
    38      1.489589  2 H  s                 44     -1.489589  3 H  s          
    12      1.167420  1 O  px                39     -0.560505  2 H  s          
    45      0.560505  3 H  s                  9      0.437177  1 O  px         
    23      0.237124  1 O  dxz               37      0.126340  2 H  s          
    43     -0.126340  3 H  s                  6      0.115298  1 O  px         
 
 Vector    9  Occ=0.000000D+00  E= 4.122738D-01  Symmetry=a1
              MO Center= -6.1D-16,  5.3D-16, -3.6D-01, r^2= 2.6D+00
   Bfn.  Coefficient  Atom+Function         Bfn.  Coefficient  Atom+Function  
  ----- ------------  ---------------      ----- ------------  ---------------
    14      1.549426  1 O  pz                38     -0.999005  2 H  s          
    44     -0.999005  3 H  s                  3      0.614037  1 O  s          
    11     -0.539686  1 O  pz                21      0.401196  1 O  dxx        
    26      0.397561  1 O  dzz                4     -0.352379  1 O  s          
    24      0.322631  1 O  dyy               39      0.233254  2 H  s          
 
 Vector   10  Occ=0.000000D+00  E= 4.188350D-01  Symmetry=b2
              MO Center=  1.2D-16,  1.8D-15, -1.1D-01, r^2= 2.4D+00
   Bfn.  Coefficient  Atom+Function         Bfn.  Coefficient  Atom+Function  
  ----- ------------  ---------------      ----- ------------  ---------------
    13      1.342476  1 O  py                10     -1.070865  1 O  py         
     7     -0.273899  1 O  py                33      0.175806  1 O  fyyy       
    35      0.169819  1 O  fyzz              28      0.165611  1 O  fxxy       
 
 Vector   11  Occ=0.000000D+00  E= 4.390334D-01  Symmetry=a1
              MO Center=  4.5D-16, -2.1D-15,  2.5D-01, r^2= 2.4D+00
   Bfn.  Coefficient  Atom+Function         Bfn.  Coefficient  Atom+Function  
  ----- ------------  ---------------      ----- ------------  ---------------
    38      1.381539  2 H  s                 44      1.381539  3 H  s          
    11     -1.046151  1 O  pz                39     -0.720305  2 H  s          
    45     -0.720305  3 H  s                  3     -0.278785  1 O  s          
     8     -0.254840  1 O  pz                 5     -0.239995  1 O  s          
    14      0.235254  1 O  pz                21     -0.222274  1 O  dxx        
 
 Vector   12  Occ=0.000000D+00  E= 5.681232D-01  Symmetry=b1
              MO Center=  1.3D-15,  3.0D-30,  1.1D-01, r^2= 3.2D+00
   Bfn.  Coefficient  Atom+Function         Bfn.  Coefficient  Atom+Function  
  ----- ------------  ---------------      ----- ------------  ---------------
    12      2.193224  1 O  px                39      1.733729  2 H  s          
    45     -1.733729  3 H  s                  9     -1.280844  1 O  px         
     6     -0.296611  1 O  px                38     -0.225619  2 H  s          
    44      0.225619  3 H  s                 30      0.195232  1 O  fxyy       
    27      0.178103  1 O  fxxx              32      0.174598  1 O  fxzz       
 
 Vector   13  Occ=0.000000D+00  E= 5.794995D-01  Symmetry=a1
              MO Center= -2.7D-16,  1.3D-15,  4.0D-01, r^2= 2.7D+00
   Bfn.  Coefficient  Atom+Function         Bfn.  Coefficient  Atom+Function  
  ----- ------------  ---------------      ----- ------------  ---------------
     5      5.198072  1 O  s                  3     -1.530498  1 O  s          
    14      1.407268  1 O  pz                24     -1.019828  1 O  dyy        
    39     -1.012188  2 H  s                 45     -1.012188  3 H  s          
    21     -0.983615  1 O  dxx                4      0.962849  1 O  s          
    26     -0.964259  1 O  dzz               38     -0.959192  2 H  s          
 
 Vector   14  Occ=0.000000D+00  E= 1.171123D+00  Symmetry=a1
              MO Center=  1.7D-16, -6.8D-16,  1.3D-01, r^2= 1.0D+00
   Bfn.  Coefficient  Atom+Function         Bfn.  Coefficient  Atom+Function  
  ----- ------------  ---------------      ----- ------------  ---------------
     5      0.930376  1 O  s                 38     -0.602113  2 H  s          
    44     -0.602113  3 H  s                 14      0.574918  1 O  pz         
    26     -0.522601  1 O  dzz               21      0.348894  1 O  dxx        
    40     -0.307062  2 H  px                46      0.307062  3 H  px         
    42     -0.301993  2 H  pz                48     -0.301993  3 H  pz         
 
 Vector   15  Occ=0.000000D+00  E= 1.198022D+00  Symmetry=a2
              MO Center=  8.2D-16, -1.1D-16,  2.0D-01, r^2= 9.4D-01
   Bfn.  Coefficient  Atom+Function         Bfn.  Coefficient  Atom+Function  
  ----- ------------  ---------------      ----- ------------  ---------------
    22      0.942361  1 O  dxy               41     -0.422280  2 H  py         
    47      0.422280  3 H  py                31     -0.039937  1 O  fxyz       
 
 Vector   16  Occ=0.000000D+00  E= 1.303972D+00  Symmetry=b2
              MO Center= -3.3D-16,  2.7D-15,  6.5D-02, r^2= 9.5D-01
   Bfn.  Coefficient  Atom+Function         Bfn.  Coefficient  Atom+Function  
  ----- ------------  ---------------      ----- ------------  ---------------
    25      1.166970  1 O  dyz               41      0.377719  2 H  py         
    47      0.377719  3 H  py                13     -0.222609  1 O  py         
     7     -0.112019  1 O  py                28     -0.058804  1 O  fxxy       
 
 Vector   17  Occ=0.000000D+00  E= 1.529626D+00  Symmetry=b1
              MO Center=  1.1D-14,  7.2D-17,  1.7D-01, r^2= 1.9D+00
   Bfn.  Coefficient  Atom+Function         Bfn.  Coefficient  Atom+Function  
  ----- ------------  ---------------      ----- ------------  ---------------
    38      2.323285  2 H  s                 44     -2.323285  3 H  s          
    23      2.201409  1 O  dxz                9      1.361648  1 O  px         
    12      0.834635  1 O  px                39     -0.606621  2 H  s          
    45      0.606621  3 H  s                 42     -0.456593  2 H  pz         
    48      0.456593  3 H  pz                37     -0.357389  2 H  s          
 
 Vector   18  Occ=0.000000D+00  E= 1.633803D+00  Symmetry=a1
              MO Center= -9.3D-15, -6.9D-16,  2.2D-01, r^2= 1.5D+00
   Bfn.  Coefficient  Atom+Function         Bfn.  Coefficient  Atom+Function  
  ----- ------------  ---------------      ----- ------------  ---------------
    38      2.338563  2 H  s                 44      2.338563  3 H  s          
     5     -1.598385  1 O  s                 21     -1.503769  1 O  dxx        
    11     -1.070630  1 O  pz                 4      1.046741  1 O  s          
    26     -0.985829  1 O  dzz               14     -0.830046  1 O  pz         
     3     -0.610407  1 O  s                 24      0.443659  1 O  dyy        
 
 Vector   19  Occ=0.000000D+00  E= 1.760195D+00  Symmetry=b1
              MO Center=  1.1D-15,  3.6D-17,  4.6D-01, r^2= 1.2D+00
   Bfn.  Coefficient  Atom+Function         Bfn.  Coefficient  Atom+Function  
  ----- ------------  ---------------      ----- ------------  ---------------
     9      0.831362  1 O  px                23      0.758233  1 O  dxz        
    40      0.597451  2 H  px                46      0.597451  3 H  px         
    12     -0.588260  1 O  px                38      0.507442  2 H  s          
    44     -0.507442  3 H  s                 42      0.491256  2 H  pz         
    48     -0.491256  3 H  pz                39     -0.471886  2 H  s          
 
 Vector   20  Occ=0.000000D+00  E= 1.858137D+00  Symmetry=a1
              MO Center= -2.2D-15,  7.5D-15,  1.1D-01, r^2= 1.6D+00
   Bfn.  Coefficient  Atom+Function         Bfn.  Coefficient  Atom+Function  
  ----- ------------  ---------------      ----- ------------  ---------------
    11      2.502034  1 O  pz                24      1.292763  1 O  dyy        
    38     -1.289353  2 H  s                 44     -1.289353  3 H  s          
     4     -1.108610  1 O  s                  3      1.061984  1 O  s          
    21      1.061223  1 O  dxx                5     -0.983541  1 O  s          
    26      0.800522  1 O  dzz                8     -0.699086  1 O  pz         
 
 Vector   21  Occ=0.000000D+00  E= 1.961973D+00  Symmetry=b2
              MO Center= -9.7D-16,  1.1D-14, -1.6D-01, r^2= 1.3D+00
   Bfn.  Coefficient  Atom+Function         Bfn.  Coefficient  Atom+Function  
  ----- ------------  ---------------      ----- ------------  ---------------
    10      1.982018  1 O  py                25     -0.960940  1 O  dyz        
    13     -0.878718  1 O  py                 7     -0.814106  1 O  py         
    35     -0.627071  1 O  fyzz              33     -0.608226  1 O  fyyy       
    28     -0.594570  1 O  fxxy              41      0.390752  2 H  py         
    47      0.390752  3 H  py         
 
 Vector   22  Occ=0.000000D+00  E= 2.081931D+00  Symmetry=b1
              MO Center=  7.3D-15, -2.9D-17, -1.2D-01, r^2= 1.6D+00
   Bfn.  Coefficient  Atom+Function         Bfn.  Coefficient  Atom+Function  
  ----- ------------  ---------------      ----- ------------  ---------------
     9      3.490625  1 O  px                12     -1.270665  1 O  px         
    38      1.103612  2 H  s                 44     -1.103612  3 H  s          
    39     -0.996211  2 H  s                 45      0.996211  3 H  s          
     6     -0.891655  1 O  px                30     -0.873084  1 O  fxyy       
    27     -0.732354  1 O  fxxx              32     -0.643643  1 O  fxzz       
 
 Vector   23  Occ=0.000000D+00  E= 2.116557D+00  Symmetry=a2
              MO Center=  9.6D-16, -8.1D-17,  1.2D-01, r^2= 1.1D+00
   Bfn.  Coefficient  Atom+Function         Bfn.  Coefficient  Atom+Function  
  ----- ------------  ---------------      ----- ------------  ---------------
    22      1.876415  1 O  dxy               41      0.765063  2 H  py         
    47     -0.765063  3 H  py                16     -0.025051  1 O  dxy        
 
 Vector   24  Occ=0.000000D+00  E= 2.131410D+00  Symmetry=a1
              MO Center= -6.5D-15,  2.5D-15, -4.0D-01, r^2= 1.3D+00
   Bfn.  Coefficient  Atom+Function         Bfn.  Coefficient  Atom+Function  
  ----- ------------  ---------------      ----- ------------  ---------------
     4      5.421506  1 O  s                  3     -2.746450  1 O  s          
    26     -2.631266  1 O  dzz               24     -2.466636  1 O  dyy        
    21     -2.219594  1 O  dxx                5      1.301653  1 O  s          
    11      1.129133  1 O  pz                38      0.873118  2 H  s          
    44      0.873118  3 H  s                 29     -0.697195  1 O  fxxz       
 
 Vector   25  Occ=0.000000D+00  E= 2.209778D+00  Symmetry=b2
              MO Center= -4.2D-16, -2.9D-14,  2.7D-01, r^2= 1.1D+00
   Bfn.  Coefficient  Atom+Function         Bfn.  Coefficient  Atom+Function  
  ----- ------------  ---------------      ----- ------------  ---------------
    10      2.082656  1 O  py                25      1.287607  1 O  dyz        
    41     -0.744666  2 H  py                47     -0.744666  3 H  py         
     7     -0.637652  1 O  py                28     -0.599511  1 O  fxxy       
    33     -0.543794  1 O  fyyy              35     -0.542395  1 O  fyzz       
    13     -0.333820  1 O  py                19     -0.025095  1 O  dyz        
 
 Vector   26  Occ=0.000000D+00  E= 2.373123D+00  Symmetry=a1
              MO Center= -8.2D-14,  2.4D-15,  3.5D-01, r^2= 1.3D+00
   Bfn.  Coefficient  Atom+Function         Bfn.  Coefficient  Atom+Function  
  ----- ------------  ---------------      ----- ------------  ---------------
     4      9.334685  1 O  s                  3     -3.923074  1 O  s          
     5      3.294827  1 O  s                 24     -3.301966  1 O  dyy        
    26     -2.886274  1 O  dzz               21     -2.753370  1 O  dxx        
    38     -1.678824  2 H  s                 44     -1.678824  3 H  s          
    14      1.023867  1 O  pz                40     -0.713641  2 H  px         
 
 Vector   27  Occ=0.000000D+00  E= 2.420957D+00  Symmetry=b1
              MO Center=  7.9D-14,  1.3D-17,  4.0D-01, r^2= 1.4D+00
   Bfn.  Coefficient  Atom+Function         Bfn.  Coefficient  Atom+Function  
  ----- ------------  ---------------      ----- ------------  ---------------
    38      1.822853  2 H  s                 44     -1.822853  3 H  s          
    40      1.074740  2 H  px                46      1.074740  3 H  px         
    23      0.983071  1 O  dxz               42     -0.772708  2 H  pz         
    48      0.772708  3 H  pz                12      0.752020  1 O  px         
    32      0.599632  1 O  fxzz               6      0.486070  1 O  px         
 
 Vector   28  Occ=0.000000D+00  E= 2.492252D+00  Symmetry=a1
              MO Center= -2.4D-17,  3.5D-15,  1.9D-01, r^2= 1.2D+00
   Bfn.  Coefficient  Atom+Function         Bfn.  Coefficient  Atom+Function  
  ----- ------------  ---------------      ----- ------------  ---------------
    21      1.468525  1 O  dxx               11     -1.004189  1 O  pz         
    42      0.801923  2 H  pz                48      0.801923  3 H  pz         
     4     -0.796817  1 O  s                 26     -0.712132  1 O  dzz        
     5     -0.696628  1 O  s                 40      0.481865  2 H  px         
    46     -0.481865  3 H  px                24      0.473874  1 O  dyy        
 
 Vector   29  Occ=0.000000D+00  E= 3.380785D+00  Symmetry=a1
              MO Center= -1.9D-14,  7.0D-16,  3.3D-01, r^2= 1.2D+00
   Bfn.  Coefficient  Atom+Function         Bfn.  Coefficient  Atom+Function  
  ----- ------------  ---------------      ----- ------------  ---------------
    11      3.206624  1 O  pz                21      2.846615  1 O  dxx        
     4     -2.540133  1 O  s                 26      2.376849  1 O  dzz        
     3      2.212182  1 O  s                 38     -1.988052  2 H  s          
    44     -1.988052  3 H  s                 40     -1.399944  2 H  px         
    46      1.399944  3 H  px                24      0.875059  1 O  dyy        
 
 Vector   30  Occ=0.000000D+00  E= 3.756485D+00  Symmetry=b1
              MO Center=  2.0D-14,  7.9D-18,  1.6D-01, r^2= 1.1D+00
   Bfn.  Coefficient  Atom+Function         Bfn.  Coefficient  Atom+Function  
  ----- ------------  ---------------      ----- ------------  ---------------
     9      4.139791  1 O  px                23      3.289009  1 O  dxz        
    38      1.673003  2 H  s                 44     -1.673003  3 H  s          
    37      1.090813  2 H  s                 43     -1.090813  3 H  s          
    40      1.048385  2 H  px                46      1.048385  3 H  px         
    32     -0.989643  1 O  fxzz              42     -0.952214  2 H  pz         
 
 Vector   31  Occ=0.000000D+00  E= 5.112597D+00  Symmetry=b2
              MO Center= -2.6D-18, -2.4D-16, -1.3D-01, r^2= 4.4D-01
   Bfn.  Coefficient  Atom+Function         Bfn.  Coefficient  Atom+Function  
  ----- ------------  ---------------      ----- ------------  ---------------
    35      2.249647  1 O  fyzz              28     -1.485548  1 O  fxxy       
    33     -0.277399  1 O  fyyy              25     -0.061604  1 O  dyz        
 
 Vector   32  Occ=0.000000D+00  E= 5.216408D+00  Symmetry=a1
              MO Center=  4.3D-17,  1.6D-14, -7.1D-02, r^2= 4.6D-01
   Bfn.  Coefficient  Atom+Function         Bfn.  Coefficient  Atom+Function  
  ----- ------------  ---------------      ----- ------------  ---------------
    34      2.052141  1 O  fyyz              36     -1.015234  1 O  fzzz       
    29      0.482736  1 O  fxxz               5     -0.198807  1 O  s          
    38      0.179081  2 H  s                 44      0.179081  3 H  s          
    40      0.167682  2 H  px                46     -0.167682  3 H  px         
    20     -0.161251  1 O  dzz               14     -0.139985  1 O  pz         
 
 Vector   33  Occ=0.000000D+00  E= 5.380408D+00  Symmetry=b2
              MO Center= -6.0D-15, -1.5D-14, -7.4D-02, r^2= 5.0D-01
   Bfn.  Coefficient  Atom+Function         Bfn.  Coefficient  Atom+Function  
  ----- ------------  ---------------      ----- ------------  ---------------
    28      2.394412  1 O  fxxy              35      1.372008  1 O  fyzz       
    33     -0.501387  1 O  fyyy              10     -0.415196  1 O  py         
    19      0.309935  1 O  dyz               41     -0.256541  2 H  py         
    47     -0.256541  3 H  py                 7     -0.233828  1 O  py         
    13      0.189757  1 O  py                25      0.125550  1 O  dyz        
 
 Vector   34  Occ=0.000000D+00  E= 5.422823D+00  Symmetry=a2
              MO Center=  6.1D-15, -1.8D-17, -3.8D-02, r^2= 4.8D-01
   Bfn.  Coefficient  Atom+Function         Bfn.  Coefficient  Atom+Function  
  ----- ------------  ---------------      ----- ------------  ---------------
    31      3.947433  1 O  fxyz              16      0.476298  1 O  dxy        
    41      0.269973  2 H  py                47     -0.269973  3 H  py         
    22      0.137111  1 O  dxy        
 
 Vector   35  Occ=0.000000D+00  E= 5.476570D+00  Symmetry=b1
              MO Center=  3.2D-17, -3.2D-21, -1.1D-01, r^2= 5.3D-01
   Bfn.  Coefficient  Atom+Function         Bfn.  Coefficient  Atom+Function  
  ----- ------------  ---------------      ----- ------------  ---------------
    32      1.601765  1 O  fxzz              27     -1.246924  1 O  fxxx       
    30      1.129976  1 O  fxyy              23     -0.402560  1 O  dxz        
    42      0.370482  2 H  pz                48     -0.370482  3 H  pz         
    38     -0.315952  2 H  s                 44      0.315952  3 H  s          
     9     -0.285053  1 O  px                12     -0.239103  1 O  px         
 
 Vector   36  Occ=0.000000D+00  E= 5.674118D+00  Symmetry=a1
              MO Center= -9.7D-16, -2.4D-16, -1.2D-01, r^2= 6.6D-01
   Bfn.  Coefficient  Atom+Function         Bfn.  Coefficient  Atom+Function  
  ----- ------------  ---------------      ----- ------------  ---------------
     4      2.646163  1 O  s                 11     -2.597023  1 O  pz         
    34      2.256757  1 O  fyyz              36      1.955572  1 O  fzzz       
    29      1.796073  1 O  fxxz               3     -1.365736  1 O  s          
    24     -0.791602  1 O  dyy               26     -0.761404  1 O  dzz        
    21     -0.681729  1 O  dxx                8     -0.672506  1 O  pz         
 
 Vector   37  Occ=0.000000D+00  E= 5.679936D+00  Symmetry=b2
              MO Center=  2.2D-17, -7.1D-17, -1.3D-01, r^2= 6.4D-01
   Bfn.  Coefficient  Atom+Function         Bfn.  Coefficient  Atom+Function  
  ----- ------------  ---------------      ----- ------------  ---------------
    10      2.562882  1 O  py                33     -2.162839  1 O  fyyy       
    35     -1.675883  1 O  fyzz              28     -1.356036  1 O  fxxy       
     7      0.658785  1 O  py                13     -0.522906  1 O  py         
    19      0.182468  1 O  dyz               41     -0.109290  2 H  py         
    47     -0.109290  3 H  py                25      0.036827  1 O  dyz        
 
 Vector   38  Occ=0.000000D+00  E= 5.769507D+00  Symmetry=b1
              MO Center= -9.5D-16,  5.0D-19, -1.5D-01, r^2= 7.1D-01
   Bfn.  Coefficient  Atom+Function         Bfn.  Coefficient  Atom+Function  
  ----- ------------  ---------------      ----- ------------  ---------------
     9      3.162081  1 O  px                30     -2.684475  1 O  fxyy       
    32     -1.981052  1 O  fxzz              27     -1.878607  1 O  fxxx       
    12     -0.926588  1 O  px                 6      0.567718  1 O  px         
    39     -0.498799  2 H  s                 45      0.498799  3 H  s          
    17      0.302446  1 O  dxz               38      0.204059  2 H  s          
 
 Vector   39  Occ=0.000000D+00  E= 6.080031D+00  Symmetry=b1
              MO Center=  6.7D-15,  1.2D-19,  7.9D-02, r^2= 4.9D-01
   Bfn.  Coefficient  Atom+Function         Bfn.  Coefficient  Atom+Function  
  ----- ------------  ---------------      ----- ------------  ---------------
    32      1.731342  1 O  fxzz              17      1.272996  1 O  dxz        
     9      1.245250  1 O  px                30     -1.238233  1 O  fxyy       
    23      0.925666  1 O  dxz               37      0.663481  2 H  s          
    43     -0.663481  3 H  s                 40      0.640775  2 H  px         
    46      0.640775  3 H  px                38      0.569320  2 H  s          
 
 Vector   40  Occ=0.000000D+00  E= 6.248124D+00  Symmetry=a1
              MO Center= -4.1D-15, -7.5D-17, -6.4D-03, r^2= 4.2D-01
   Bfn.  Coefficient  Atom+Function         Bfn.  Coefficient  Atom+Function  
  ----- ------------  ---------------      ----- ------------  ---------------
     4      6.705822  1 O  s                  3     -3.239550  1 O  s          
    21     -1.453418  1 O  dxx               29      1.377209  1 O  fxxz       
    26     -1.323518  1 O  dzz               24     -1.164252  1 O  dyy        
    18     -1.022970  1 O  dyy               11      0.724234  1 O  pz         
    15      0.658673  1 O  dxx               34     -0.600338  1 O  fyyz       
 
 Vector   41  Occ=0.000000D+00  E= 6.311404D+00  Symmetry=a1
              MO Center= -2.5D-15, -3.5D-16, -1.4D-01, r^2= 7.2D-01
   Bfn.  Coefficient  Atom+Function         Bfn.  Coefficient  Atom+Function  
  ----- ------------  ---------------      ----- ------------  ---------------
     4     37.275056  1 O  s                  3    -19.542461  1 O  s          
    24    -10.072251  1 O  dyy               26    -10.096397  1 O  dzz        
    21     -9.910967  1 O  dxx               15     -0.875749  1 O  dxx        
     5      0.748389  1 O  s                 20     -0.551005  1 O  dzz        
    18     -0.522658  1 O  dyy               29     -0.320020  1 O  fxxz       
 
 Vector   42  Occ=0.000000D+00  E= 6.335013D+00  Symmetry=b2
              MO Center= -7.4D-16, -8.3D-16, -1.2D-01, r^2= 3.4D-01
   Bfn.  Coefficient  Atom+Function         Bfn.  Coefficient  Atom+Function  
  ----- ------------  ---------------      ----- ------------  ---------------
    19      2.006469  1 O  dyz               25     -1.222236  1 O  dyz        
    33      0.362113  1 O  fyyy              10     -0.305010  1 O  py         
    28     -0.292876  1 O  fxxy              41      0.188719  2 H  py         
    47      0.188719  3 H  py                35     -0.086194  1 O  fyzz       
 
 Vector   43  Occ=0.000000D+00  E= 6.393800D+00  Symmetry=a2
              MO Center=  6.9D-16,  6.6D-17, -1.6D-01, r^2= 3.6D-01
   Bfn.  Coefficient  Atom+Function         Bfn.  Coefficient  Atom+Function  
  ----- ------------  ---------------      ----- ------------  ---------------
    16      1.994674  1 O  dxy               22     -1.335768  1 O  dxy        
    31     -1.214052  1 O  fxyz              41     -0.230418  2 H  py         
    47      0.230418  3 H  py         
 
 Vector   44  Occ=0.000000D+00  E= 6.453984D+00  Symmetry=a1
              MO Center=  1.5D-16,  1.7D-15, -1.1D-01, r^2= 3.8D-01
   Bfn.  Coefficient  Atom+Function         Bfn.  Coefficient  Atom+Function  
  ----- ------------  ---------------      ----- ------------  ---------------
     4      3.810178  1 O  s                  3     -1.883593  1 O  s          
    24     -1.313665  1 O  dyy               20     -1.232588  1 O  dzz        
    21     -1.219779  1 O  dxx               11      0.784517  1 O  pz         
    34     -0.740394  1 O  fyyz              15      0.581143  1 O  dxx        
    38     -0.462805  2 H  s                 44     -0.462805  3 H  s          
 
 Vector   45  Occ=0.000000D+00  E= 6.946197D+00  Symmetry=a1
              MO Center=  3.9D-16,  6.8D-17, -1.0D-01, r^2= 6.4D-01
   Bfn.  Coefficient  Atom+Function         Bfn.  Coefficient  Atom+Function  
  ----- ------------  ---------------      ----- ------------  ---------------
    29      2.527702  1 O  fxxz              21      2.435740  1 O  dxx        
    11      1.849906  1 O  pz                 4     -1.637374  1 O  s          
     3      1.328994  1 O  s                 34     -1.288870  1 O  fyyz       
    26      1.274984  1 O  dzz               38     -1.274985  2 H  s          
    44     -1.274985  3 H  s                 37     -0.901261  2 H  s          
 
 Vector   46  Occ=0.000000D+00  E= 7.064110D+00  Symmetry=b1
              MO Center=  1.2D-15,  3.1D-17, -7.2D-02, r^2= 6.2D-01
   Bfn.  Coefficient  Atom+Function         Bfn.  Coefficient  Atom+Function  
  ----- ------------  ---------------      ----- ------------  ---------------
    23      3.467629  1 O  dxz                9      2.844027  1 O  px         
    30     -2.074493  1 O  fxyy              17     -1.705934  1 O  dxz        
    38      1.297803  2 H  s                 44     -1.297803  3 H  s          
    32      1.121559  1 O  fxzz              37      0.988875  2 H  s          
    43     -0.988875  3 H  s                 40      0.721076  2 H  px         
 
 Vector   47  Occ=0.000000D+00  E= 1.645337D+01  Symmetry=a1
              MO Center=  4.9D-17, -1.3D-20, -1.1D-01, r^2= 3.0D-01
   Bfn.  Coefficient  Atom+Function         Bfn.  Coefficient  Atom+Function  
  ----- ------------  ---------------      ----- ------------  ---------------
     4     14.164760  1 O  s                 24     -4.131134  1 O  dyy        
    21     -4.063452  1 O  dxx               26     -4.082346  1 O  dzz        
    15     -3.183195  1 O  dxx               18     -3.183013  1 O  dyy        
    20     -3.185859  1 O  dzz                2     -1.855746  1 O  s          
     5      0.604848  1 O  s                  1     -0.229892  1 O  s          
 
 Vector   48  Occ=0.000000D+00  E= 7.166924D+01  Symmetry=a1
              MO Center=  2.9D-17,  1.9D-20, -1.2D-01, r^2= 7.4D-02
   Bfn.  Coefficient  Atom+Function         Bfn.  Coefficient  Atom+Function  
  ----- ------------  ---------------      ----- ------------  ---------------
     3     10.499196  1 O  s                  4     -4.894941  1 O  s          
     2     -4.130074  1 O  s                 15     -2.635327  1 O  dxx        
    18     -2.634595  1 O  dyy               20     -2.635932  1 O  dzz        
     1      1.705824  1 O  s                 21      0.729859  1 O  dxx        
     5      0.726045  1 O  s                 26      0.724193  1 O  dzz        
 

 center of mass
 --------------
 x =   0.00000000 y =   0.00000000 z =  -0.09759357

 moments of inertia (a.u.)
 ------------------
           2.197390117767           0.000000000000           0.000000000000
           0.000000000000           6.324385709757           0.000000000000
           0.000000000000           0.000000000000           4.126995591990
 
     Multipole analysis of the density
     ---------------------------------
 
     L   x y z        total         alpha         beta         nuclear
     -   - - -        -----         -----         ----         -------
     0   0 0 0     -0.000000     -5.000000     -5.000000     10.000000
 
     1   1 0 0     -0.000000     -0.000000     -0.000000      0.000000
     1   0 1 0      0.000000      0.000000      0.000000      0.000000
     1   0 0 1      0.816435      0.408218      0.408218      0.000000
 
     2   2 0 0     -3.220313     -3.657633     -3.657633      4.094953
     2   1 1 0      0.000000      0.000000      0.000000      0.000000
     2   1 0 1      0.000000      0.000000      0.000000      0.000000
     2   0 2 0     -5.602666     -2.801333     -2.801333      0.000000
     2   0 1 1      0.000000      0.000000      0.000000      0.000000
     2   0 0 2     -4.655910     -3.309991     -3.309991      1.964072
 

 Parallel integral file used      19 records with       0 large values

 
            General Information
            -------------------
          SCF calculation type: DFT
          Wavefunction type:  closed shell.
          No. of atoms     :     3
          No. of electrons :    10
           Alpha electrons :     5
            Beta electrons :     5
          Charge           :     0
          Spin multiplicity:     1
          Use of symmetry is: on ; symmetry adaption is: on 
          Maximum number of iterations:  50
          AO basis - number of functions:    48
                     number of shells:    19
          Convergence on energy requested:  1.00D-06
          Convergence on density requested:  1.00D-05
          Convergence on gradient requested:  5.00D-04
 
              XC Information
              --------------
                         PBE0 Method XC Functional
                     Hartree-Fock (Exact) Exchange  0.250          
          PerdewBurkeErnzerhof Exchange Functional  0.750          
            Perdew 1991 LDA Correlation Functional  1.000 local    
           PerdewBurkeErnz. Correlation Functional  1.000 non-local
 
             Grid Information
             ----------------
          Grid used for XC integration:  xfine     
          Radial quadrature: Mura-Knowles        
          Angular quadrature: Lebedev. 
          Tag              B.-S. Rad. Rad. Pts. Rad. Cut. Ang. Pts.
          ---              ---------- --------- --------- ---------
          O                   0.60      100           6.0      1454
          H                   0.35      100           8.0      1202
          Grid pruning is: on 
          Number of quadrature shells:   200
          Spatial weights used:  Erf1
 
          Convergence Information
          -----------------------
          Convergence aids based upon iterative change in 
          total energy or number of iterations. 
          Levelshifting, if invoked, occurs when the 
          HOMO/LUMO gap drops below (HL_TOL):  1.00D-02
          DIIS, if invoked, will attempt to extrapolate 
          using up to (NFOCK): 10 stored Fock matrices.

                    Damping( 0%)  Levelshifting(0.5)       DIIS
                  --------------- ------------------- ---------------
          dE  on:    start            ASAP                start   
          dE off:    2 iters         50 iters            50 iters 

 
      Screening Tolerance Information
      -------------------------------
          Density screening/tol_rho:  1.00D-10
          AO Gaussian exp screening on grid/accAOfunc:  14
          CD Gaussian exp screening on grid/accCDfunc:  20
          XC Gaussian exp screening on grid/accXCfunc:  20
          Schwarz screening/accCoul:  1.00D-08

 
 
                            NWChem DFT Gradient Module
                            --------------------------
 
 

  charge          =   0.00
  wavefunction    = closed shell

  Using symmetry


                         DFT ENERGY GRADIENTS

    atom               coordinates                        gradient
                 x          y          z           x          y          z
   1 O       0.000000   0.000000  -0.221589    0.000000   0.000000   0.000361
   2 H      -1.430901   0.000000   0.886357    0.001820   0.000000  -0.000181
   3 H       1.430901   0.000000   0.886357   -0.001820   0.000000  -0.000181
 
                 ----------------------------------------
                 |  Time  |  1-e(secs)   |  2-e(secs)   |
                 ----------------------------------------
                 |  CPU   |       0.00   |       0.01   |
                 ----------------------------------------
                 |  WALL  |       0.00   |       0.01   |
                 ----------------------------------------
  no constraints, skipping   0.000000000000000E+000

@ Step       Energy      Delta E   Gmax     Grms     Xrms     Xmax   Walltime
@ ---- ---------------- -------- -------- -------- -------- -------- --------
@    0     -76.37791027  0.0D+00  0.00155  0.00137  0.00000  0.00000     10.6
                                                                    



                                Z-matrix (autoz)
                                -------- 

 Units are Angstrom for bonds and degrees for angles
 
      Type          Name      I     J     K     L     M      Value     Gradient
      ----------- --------  ----- ----- ----- ----- ----- ---------- ----------
    1 Stretch                  1     2                       0.95765   -0.00155
    2 Stretch                  1     3                       0.95765   -0.00155
    3 Bend                     2     1     3               104.49876   -0.00093
 
  no constraints, skipping   0.000000000000000E+000
  no constraints, skipping   0.000000000000000E+000
  no constraints, skipping   0.000000000000000E+000
  no constraints, skipping   0.000000000000000E+000
 
                                 NWChem DFT Module
                                 -----------------
 
 


 Summary of "ao basis" -> "ao basis" (cartesian)
 ------------------------------------------------------------------------------
       Tag                 Description            Shells   Functions and Types
 ---------------- ------------------------------  ------  ---------------------
 O                         def2-tzvp                11       36   5s3p2d1f
 H                         def2-tzvp                 4        6   3s1p


      Symmetry analysis of basis
      --------------------------
 
        a1         22
        a2          4
        b1         13
        b2          9
 
  Caching 1-el integrals 
 
            General Information
            -------------------
          SCF calculation type: DFT
          Wavefunction type:  closed shell.
          No. of atoms     :     3
          No. of electrons :    10
           Alpha electrons :     5
            Beta electrons :     5
          Charge           :     0
          Spin multiplicity:     1
          Use of symmetry is: on ; symmetry adaption is: on 
          Maximum number of iterations:  50
          AO basis - number of functions:    48
                     number of shells:    19
          Convergence on energy requested:  1.00D-06
          Convergence on density requested:  1.00D-05
          Convergence on gradient requested:  5.00D-04
 
              XC Information
              --------------
                         PBE0 Method XC Functional
                     Hartree-Fock (Exact) Exchange  0.250          
          PerdewBurkeErnzerhof Exchange Functional  0.750          
            Perdew 1991 LDA Correlation Functional  1.000 local    
           PerdewBurkeErnz. Correlation Functional  1.000 non-local
 
             Grid Information
             ----------------
          Grid used for XC integration:  xfine     
          Radial quadrature: Mura-Knowles        
          Angular quadrature: Lebedev. 
          Tag              B.-S. Rad. Rad. Pts. Rad. Cut. Ang. Pts.
          ---              ---------- --------- --------- ---------
          O                   0.60      100           6.0      1454
          H                   0.35      100           8.0      1202
          Grid pruning is: on 
          Number of quadrature shells:   200
          Spatial weights used:  Erf1
 
          Convergence Information
          -----------------------
          Convergence aids based upon iterative change in 
          total energy or number of iterations. 
          Levelshifting, if invoked, occurs when the 
          HOMO/LUMO gap drops below (HL_TOL):  1.00D-02
          DIIS, if invoked, will attempt to extrapolate 
          using up to (NFOCK): 10 stored Fock matrices.

                    Damping( 0%)  Levelshifting(0.5)       DIIS
                  --------------- ------------------- ---------------
          dE  on:    start            ASAP                start   
          dE off:    2 iters         50 iters            50 iters 

 
      Screening Tolerance Information
      -------------------------------
          Density screening/tol_rho:  1.00D-10
          AO Gaussian exp screening on grid/accAOfunc:  14
          CD Gaussian exp screening on grid/accCDfunc:  20
          XC Gaussian exp screening on grid/accXCfunc:  20
          Schwarz screening/accCoul:  1.00D-08


 Loading old vectors from job with title :



 
      Symmetry analysis of molecular orbitals - initial
      -------------------------------------------------
 
  Numbering of irreducible representations: 
 
     1 a1          2 a2          3 b1          4 b2      
 
  Orbital symmetries:
 
     1 a1          2 a1          3 b1          4 a1          5 b2      
     6 a1          7 b1          8 b1          9 a1         10 b2      
    11 a1         12 b1         13 a1         14 a1         15 a2      
 
   Time after variat. SCF:     10.7
   Time prior to 1st pass:     10.7

 #quartets = 1.179D+04 #integrals = 1.970D+05 #direct =  0.0% #cached =100.0%


 Integral file          = ./h2o_spin.aoints.00
 Record size in doubles =  65536        No. of integs per rec  =  43688
 Max. records in memory =      3        Max. records in file   = 224872
 No. of bits per label  =      8        No. of bits per value  =     64


File balance: exchanges=     0  moved=     0  time=   0.0


 Grid_pts file          = ./h2o_spin.gridpts.00
 Record size in doubles =  12289        No. of grid_pts per rec  =   3070
 Max. records in memory =      7        Max. recs in file   =   1199223


           Memory utilization after 1st SCF pass: 
           Heap Space remaining (MW):       32.48            32482226
          Stack Space remaining (MW):       32.77            32767604

   convergence    iter        energy       DeltaE   RMS-Dens  Diis-err    time
 ---------------- ----- ----------------- --------- --------- ---------  ------
 d= 0,ls=0.0,diis     1    -76.3779150414 -8.55D+01  1.13D-04  6.18D-05    12.2
 d= 0,ls=0.0,diis     2    -76.3779195367 -4.50D-06  4.75D-05  1.30D-05    12.2
 d= 0,ls=0.0,diis     3    -76.3779198939 -3.57D-07  2.09D-05  8.54D-06    12.3
 d= 0,ls=0.0,diis     4    -76.3779205724 -6.79D-07  1.79D-06  4.41D-08    12.3


         Total DFT energy =      -76.377920572445
      One electron energy =     -123.042082110047
           Coulomb energy =       46.751895280514
    Exchange-Corr. energy =       -9.255350984393
 Nuclear repulsion energy =        9.167617241481

 Numeric. integr. density =       10.000000028489

     Total iterative time =      1.6s


 
                  Occupations of the irreducible representations
                  ----------------------------------------------
 
                     irrep           alpha         beta
                     --------     --------     --------
                     a1                3.0          3.0
                     a2                0.0          0.0
                     b1                1.0          1.0
                     b2                1.0          1.0
 
 
                       DFT Final Molecular Orbital Analysis
                       ------------------------------------
 
 Vector    1  Occ=2.000000D+00  E=-1.920620D+01  Symmetry=a1
              MO Center= -1.1D-18, -9.2D-25, -1.2D-01, r^2= 1.5D-02
   Bfn.  Coefficient  Atom+Function         Bfn.  Coefficient  Atom+Function  
  ----- ------------  ---------------      ----- ------------  ---------------
     2      0.635965  1 O  s                  1      0.435869  1 O  s          
     4     -0.091725  1 O  s                  3      0.080712  1 O  s          
 
 Vector    2  Occ=2.000000D+00  E=-1.038913D+00  Symmetry=a1
              MO Center=  1.7D-15, -1.4D-15,  8.1D-02, r^2= 5.0D-01
   Bfn.  Coefficient  Atom+Function         Bfn.  Coefficient  Atom+Function  
  ----- ------------  ---------------      ----- ------------  ---------------
     4      0.476934  1 O  s                  3      0.302375  1 O  s          
     2     -0.226222  1 O  s                  5      0.158297  1 O  s          
     1     -0.097416  1 O  s                 37      0.093792  2 H  s          
    43      0.093792  3 H  s                  8      0.083319  1 O  pz         
    38      0.073100  2 H  s                 44      0.073100  3 H  s          
 
 Vector    3  Occ=2.000000D+00  E=-5.468888D-01  Symmetry=b1
              MO Center= -1.6D-15,  1.7D-34,  9.8D-02, r^2= 7.7D-01
   Bfn.  Coefficient  Atom+Function         Bfn.  Coefficient  Atom+Function  
  ----- ------------  ---------------      ----- ------------  ---------------
     6      0.381904  1 O  px                 9      0.288024  1 O  px         
    38     -0.189326  2 H  s                 44      0.189326  3 H  s          
    37     -0.147706  2 H  s                 43      0.147706  3 H  s          
    12      0.126522  1 O  px                39     -0.056268  2 H  s          
    45      0.056268  3 H  s                 23      0.042501  1 O  dxz        
 
 Vector    4  Occ=2.000000D+00  E=-4.025095D-01  Symmetry=a1
              MO Center= -2.3D-16,  6.0D-15, -1.9D-01, r^2= 7.2D-01
   Bfn.  Coefficient  Atom+Function         Bfn.  Coefficient  Atom+Function  
  ----- ------------  ---------------      ----- ------------  ---------------
     8      0.413596  1 O  pz                11      0.318277  1 O  pz         
    14      0.237483  1 O  pz                 5     -0.214466  1 O  s          
     4     -0.174766  1 O  s                  3     -0.144440  1 O  s          
    38      0.124908  2 H  s                 44      0.124908  3 H  s          
    37      0.086619  2 H  s                 43      0.086619  3 H  s          
 
 Vector    5  Occ=2.000000D+00  E=-3.270200D-01  Symmetry=b2
              MO Center= -2.3D-17, -4.4D-15, -8.5D-02, r^2= 6.7D-01
   Bfn.  Coefficient  Atom+Function         Bfn.  Coefficient  Atom+Function  
  ----- ------------  ---------------      ----- ------------  ---------------
     7      0.471648  1 O  py                10      0.385960  1 O  py         
    13      0.334467  1 O  py                25      0.046703  1 O  dyz        
    41      0.026220  2 H  py                47      0.026220  3 H  py         
 
 Vector    6  Occ=0.000000D+00  E= 2.992370D-02  Symmetry=a1
              MO Center= -5.0D-15, -2.7D-16,  6.9D-01, r^2= 3.6D+00
   Bfn.  Coefficient  Atom+Function         Bfn.  Coefficient  Atom+Function  
  ----- ------------  ---------------      ----- ------------  ---------------
     5      1.288930  1 O  s                 39     -0.977340  2 H  s          
    45     -0.977340  3 H  s                  4      0.509820  1 O  s          
    14      0.356431  1 O  pz                21     -0.200159  1 O  dxx        
    26     -0.177299  1 O  dzz               24     -0.175468  1 O  dyy        
     8      0.158342  1 O  pz                 3     -0.120035  1 O  s          
 
 Vector    7  Occ=0.000000D+00  E= 1.053752D-01  Symmetry=b1
              MO Center=  2.9D-15,  2.0D-18,  7.1D-01, r^2= 4.1D+00
   Bfn.  Coefficient  Atom+Function         Bfn.  Coefficient  Atom+Function  
  ----- ------------  ---------------      ----- ------------  ---------------
    39      1.698018  2 H  s                 45     -1.698018  3 H  s          
    12      0.741217  1 O  px                 6      0.251845  1 O  px         
    23     -0.064367  1 O  dxz               40     -0.041930  2 H  px         
    46     -0.041930  3 H  px                30      0.041637  1 O  fxyy       
    27      0.040200  1 O  fxxx              42      0.039975  2 H  pz         
 
 Vector    8  Occ=0.000000D+00  E= 3.737198D-01  Symmetry=b1
              MO Center= -6.4D-15,  2.7D-18, -9.8D-02, r^2= 2.5D+00
   Bfn.  Coefficient  Atom+Function         Bfn.  Coefficient  Atom+Function  
  ----- ------------  ---------------      ----- ------------  ---------------
    38      1.488284  2 H  s                 44     -1.488284  3 H  s          
    12      1.165473  1 O  px                39     -0.563800  2 H  s          
    45      0.563800  3 H  s                  9      0.438481  1 O  px         
    23      0.235075  1 O  dxz               37      0.125705  2 H  s          
    43     -0.125705  3 H  s                  6      0.116213  1 O  px         
 
 Vector    9  Occ=0.000000D+00  E= 4.116802D-01  Symmetry=a1
              MO Center= -1.1D-15,  4.3D-17, -2.9D-01, r^2= 2.6D+00
   Bfn.  Coefficient  Atom+Function         Bfn.  Coefficient  Atom+Function  
  ----- ------------  ---------------      ----- ------------  ---------------
    14      1.530327  1 O  pz                38     -1.055338  2 H  s          
    44     -1.055338  3 H  s                  3      0.620843  1 O  s          
    11     -0.496741  1 O  pz                21      0.407333  1 O  dxx        
    26      0.402330  1 O  dzz                4     -0.348714  1 O  s          
    24      0.325332  1 O  dyy               39      0.268616  2 H  s          
 
 Vector   10  Occ=0.000000D+00  E= 4.188960D-01  Symmetry=b2
              MO Center= -4.0D-16,  1.4D-16, -1.1D-01, r^2= 2.4D+00
   Bfn.  Coefficient  Atom+Function         Bfn.  Coefficient  Atom+Function  
  ----- ------------  ---------------      ----- ------------  ---------------
    13      1.342414  1 O  py                10     -1.070995  1 O  py         
     7     -0.273967  1 O  py                33      0.175834  1 O  fyyy       
    35      0.169949  1 O  fyzz              28      0.165625  1 O  fxxy       
 
 Vector   11  Occ=0.000000D+00  E= 4.368927D-01  Symmetry=a1
              MO Center=  5.3D-15, -3.8D-16,  1.9D-01, r^2= 2.4D+00
   Bfn.  Coefficient  Atom+Function         Bfn.  Coefficient  Atom+Function  
  ----- ------------  ---------------      ----- ------------  ---------------
    38      1.322188  2 H  s                 44      1.322188  3 H  s          
    11     -1.061543  1 O  pz                39     -0.705997  2 H  s          
    45     -0.705997  3 H  s                 14      0.313441  1 O  pz         
     8     -0.260733  1 O  pz                 5     -0.245968  1 O  s          
     3     -0.242202  1 O  s                 21     -0.197780  1 O  dxx        
 
 Vector   12  Occ=0.000000D+00  E= 5.675122D-01  Symmetry=b1
              MO Center=  3.1D-15,  1.9D-29,  1.0D-01, r^2= 3.2D+00
   Bfn.  Coefficient  Atom+Function         Bfn.  Coefficient  Atom+Function  
  ----- ------------  ---------------      ----- ------------  ---------------
    12      2.199372  1 O  px                39      1.724581  2 H  s          
    45     -1.724581  3 H  s                  9     -1.278672  1 O  px         
     6     -0.296378  1 O  px                38     -0.216826  2 H  s          
    44      0.216826  3 H  s                 30      0.194963  1 O  fxyy       
    27      0.177959  1 O  fxxx              32      0.174961  1 O  fxzz       
 
 Vector   13  Occ=0.000000D+00  E= 5.788716D-01  Symmetry=a1
              MO Center= -2.4D-15,  3.6D-16,  4.0D-01, r^2= 2.8D+00
   Bfn.  Coefficient  Atom+Function         Bfn.  Coefficient  Atom+Function  
  ----- ------------  ---------------      ----- ------------  ---------------
     5      5.172410  1 O  s                  3     -1.534838  1 O  s          
    14      1.387812  1 O  pz                24     -1.021845  1 O  dyy        
    39     -1.013065  2 H  s                 45     -1.013065  3 H  s          
    21     -0.986863  1 O  dxx                4      0.964312  1 O  s          
    26     -0.968513  1 O  dzz               38     -0.935637  2 H  s          
 
 Vector   14  Occ=0.000000D+00  E= 1.175362D+00  Symmetry=a1
              MO Center= -1.2D-15,  3.8D-16,  1.2D-01, r^2= 1.0D+00
   Bfn.  Coefficient  Atom+Function         Bfn.  Coefficient  Atom+Function  
  ----- ------------  ---------------      ----- ------------  ---------------
     5      0.931795  1 O  s                 38     -0.594540  2 H  s          
    44     -0.594540  3 H  s                 14      0.574587  1 O  pz         
    26     -0.534407  1 O  dzz               21      0.344580  1 O  dxx        
    42     -0.304652  2 H  pz                48     -0.304652  3 H  pz         
    40     -0.299954  2 H  px                46      0.299954  3 H  px         
 
 Vector   15  Occ=0.000000D+00  E= 1.196320D+00  Symmetry=a2
              MO Center=  4.1D-16, -8.1D-21,  2.0D-01, r^2= 9.5D-01
   Bfn.  Coefficient  Atom+Function         Bfn.  Coefficient  Atom+Function  
  ----- ------------  ---------------      ----- ------------  ---------------
    22      0.940171  1 O  dxy               41     -0.422813  2 H  py         
    47      0.422813  3 H  py                31     -0.039201  1 O  fxyz       
 
 Vector   16  Occ=0.000000D+00  E= 1.305440D+00  Symmetry=b2
              MO Center=  9.6D-17,  7.8D-15,  6.5D-02, r^2= 9.5D-01
   Bfn.  Coefficient  Atom+Function         Bfn.  Coefficient  Atom+Function  
  ----- ------------  ---------------      ----- ------------  ---------------
    25      1.170323  1 O  dyz               41      0.377453  2 H  py         
    47      0.377453  3 H  py                13     -0.223365  1 O  py         
     7     -0.112003  1 O  py                28     -0.058790  1 O  fxxy       
 
 Vector   17  Occ=0.000000D+00  E= 1.531583D+00  Symmetry=b1
              MO Center=  9.0D-16, -7.3D-32,  1.7D-01, r^2= 1.9D+00
   Bfn.  Coefficient  Atom+Function         Bfn.  Coefficient  Atom+Function  
  ----- ------------  ---------------      ----- ------------  ---------------
    38      2.302919  2 H  s                 44     -2.302919  3 H  s          
    23      2.183801  1 O  dxz                9      1.344227  1 O  px         
    12      0.844471  1 O  px                39     -0.595982  2 H  s          
    45      0.595982  3 H  s                 42     -0.453978  2 H  pz         
    48      0.453978  3 H  pz                37     -0.357655  2 H  s          
 
 Vector   18  Occ=0.000000D+00  E= 1.632804D+00  Symmetry=a1
              MO Center=  2.1D-15,  8.6D-15,  2.2D-01, r^2= 1.5D+00
   Bfn.  Coefficient  Atom+Function         Bfn.  Coefficient  Atom+Function  
  ----- ------------  ---------------      ----- ------------  ---------------
    38      2.306172  2 H  s                 44      2.306172  3 H  s          
     5     -1.575442  1 O  s                 21     -1.500000  1 O  dxx        
     4      1.052919  1 O  s                 11     -1.039240  1 O  pz         
    26     -0.965547  1 O  dzz               14     -0.816697  1 O  pz         
     3     -0.604221  1 O  s                 24      0.448041  1 O  dyy        
 
 Vector   19  Occ=0.000000D+00  E= 1.754297D+00  Symmetry=b1
              MO Center=  1.5D-15, -2.1D-17,  4.6D-01, r^2= 1.2D+00
   Bfn.  Coefficient  Atom+Function         Bfn.  Coefficient  Atom+Function  
  ----- ------------  ---------------      ----- ------------  ---------------
     9      0.870210  1 O  px                23      0.787273  1 O  dxz        
    40      0.604669  2 H  px                46      0.604669  3 H  px         
    12     -0.585827  1 O  px                38      0.545300  2 H  s          
    44     -0.545300  3 H  s                 39     -0.484026  2 H  s          
    45      0.484026  3 H  s                 42      0.480792  2 H  pz         
 
 Vector   20  Occ=0.000000D+00  E= 1.859294D+00  Symmetry=a1
              MO Center=  1.5D-16, -6.3D-18,  1.1D-01, r^2= 1.6D+00
   Bfn.  Coefficient  Atom+Function         Bfn.  Coefficient  Atom+Function  
  ----- ------------  ---------------      ----- ------------  ---------------
    11      2.492400  1 O  pz                24      1.290266  1 O  dyy        
    38     -1.287618  2 H  s                 44     -1.287618  3 H  s          
     4     -1.132384  1 O  s                 21      1.077581  1 O  dxx        
     3      1.065906  1 O  s                  5     -0.977225  1 O  s          
    26      0.788344  1 O  dzz                8     -0.700859  1 O  pz         
 
 Vector   21  Occ=0.000000D+00  E= 1.960465D+00  Symmetry=b2
              MO Center=  3.0D-16, -3.8D-14, -1.5D-01, r^2= 1.3D+00
   Bfn.  Coefficient  Atom+Function         Bfn.  Coefficient  Atom+Function  
  ----- ------------  ---------------      ----- ------------  ---------------
    10      1.962823  1 O  py                25     -0.970012  1 O  dyz        
    13     -0.875435  1 O  py                 7     -0.807521  1 O  py         
    35     -0.621437  1 O  fyzz              33     -0.602757  1 O  fyyy       
    28     -0.588317  1 O  fxxy              41      0.397024  2 H  py         
    47      0.397024  3 H  py         
 
 Vector   22  Occ=0.000000D+00  E= 2.082096D+00  Symmetry=b1
              MO Center=  2.5D-14,  2.8D-17, -1.2D-01, r^2= 1.6D+00
   Bfn.  Coefficient  Atom+Function         Bfn.  Coefficient  Atom+Function  
  ----- ------------  ---------------      ----- ------------  ---------------
     9      3.484159  1 O  px                12     -1.266810  1 O  px         
    38      1.095846  2 H  s                 44     -1.095846  3 H  s          
    39     -0.988924  2 H  s                 45      0.988924  3 H  s          
     6     -0.890563  1 O  px                30     -0.873170  1 O  fxyy       
    27     -0.731969  1 O  fxxx              32     -0.646434  1 O  fxzz       
 
 Vector   23  Occ=0.000000D+00  E= 2.117585D+00  Symmetry=a2
              MO Center= -5.3D-16,  1.9D-17,  1.2D-01, r^2= 1.1D+00
   Bfn.  Coefficient  Atom+Function         Bfn.  Coefficient  Atom+Function  
  ----- ------------  ---------------      ----- ------------  ---------------
    22      1.877028  1 O  dxy               41      0.763715  2 H  py         
    47     -0.763715  3 H  py         
 
 Vector   24  Occ=0.000000D+00  E= 2.132837D+00  Symmetry=a1
              MO Center= -2.1D-14,  1.3D-14, -4.0D-01, r^2= 1.3D+00
   Bfn.  Coefficient  Atom+Function         Bfn.  Coefficient  Atom+Function  
  ----- ------------  ---------------      ----- ------------  ---------------
     4      5.499469  1 O  s                  3     -2.781444  1 O  s          
    26     -2.641485  1 O  dzz               24     -2.495585  1 O  dyy        
    21     -2.262322  1 O  dxx                5      1.327023  1 O  s          
    11      1.132123  1 O  pz                38      0.872334  2 H  s          
    44      0.872334  3 H  s                 29     -0.697273  1 O  fxxz       
 
 Vector   25  Occ=0.000000D+00  E= 2.205728D+00  Symmetry=b2
              MO Center=  2.9D-16,  2.0D-15,  2.7D-01, r^2= 1.1D+00
   Bfn.  Coefficient  Atom+Function         Bfn.  Coefficient  Atom+Function  
  ----- ------------  ---------------      ----- ------------  ---------------
    10      2.097797  1 O  py                25      1.268307  1 O  dyz        
    41     -0.737567  2 H  py                47     -0.737567  3 H  py         
     7     -0.645827  1 O  py                28     -0.605582  1 O  fxxy       
    33     -0.549597  1 O  fyyy              35     -0.548288  1 O  fyzz       
    13     -0.342427  1 O  py         
 
 Vector   26  Occ=0.000000D+00  E= 2.373037D+00  Symmetry=a1
              MO Center= -3.3D-16,  1.1D-14,  3.6D-01, r^2= 1.3D+00
   Bfn.  Coefficient  Atom+Function         Bfn.  Coefficient  Atom+Function  
  ----- ------------  ---------------      ----- ------------  ---------------
     4      9.225681  1 O  s                  3     -3.872675  1 O  s          
     5      3.240320  1 O  s                 24     -3.256182  1 O  dyy        
    26     -2.906513  1 O  dzz               21     -2.657566  1 O  dxx        
    38     -1.663019  2 H  s                 44     -1.663019  3 H  s          
    14      1.006320  1 O  pz                40     -0.690217  2 H  px         
 
 Vector   27  Occ=0.000000D+00  E= 2.416693D+00  Symmetry=b1
              MO Center=  2.8D-16, -1.1D-30,  4.0D-01, r^2= 1.4D+00
   Bfn.  Coefficient  Atom+Function         Bfn.  Coefficient  Atom+Function  
  ----- ------------  ---------------      ----- ------------  ---------------
    38      1.822585  2 H  s                 44     -1.822585  3 H  s          
    40      1.070459  2 H  px                46      1.070459  3 H  px         
    23      0.986570  1 O  dxz               42     -0.773444  2 H  pz         
    48      0.773444  3 H  pz                12      0.759438  1 O  px         
    32      0.590598  1 O  fxzz               6      0.484337  1 O  px         
 
 Vector   28  Occ=0.000000D+00  E= 2.494056D+00  Symmetry=a1
              MO Center=  7.6D-17, -1.1D-15,  1.8D-01, r^2= 1.2D+00
   Bfn.  Coefficient  Atom+Function         Bfn.  Coefficient  Atom+Function  
  ----- ------------  ---------------      ----- ------------  ---------------
    21      1.548183  1 O  dxx                4     -1.174781  1 O  s          
    11     -1.016518  1 O  pz                 5     -0.826457  1 O  s          
    42      0.767097  2 H  pz                48      0.767097  3 H  pz         
    26     -0.610232  1 O  dzz                3      0.606222  1 O  s          
    24      0.591690  1 O  dyy               40      0.527887  2 H  px         
 
 Vector   29  Occ=0.000000D+00  E= 3.369813D+00  Symmetry=a1
              MO Center= -2.1D-15, -3.9D-15,  3.2D-01, r^2= 1.2D+00
   Bfn.  Coefficient  Atom+Function         Bfn.  Coefficient  Atom+Function  
  ----- ------------  ---------------      ----- ------------  ---------------
    11      3.180201  1 O  pz                21      2.880724  1 O  dxx        
[...]
              MO Center= -1.1D-15,  6.5D-15,  3.2D-01, r^2= 1.2D+00
   Bfn.  Coefficient  Atom+Function         Bfn.  Coefficient  Atom+Function  
  ----- ------------  ---------------      ----- ------------  ---------------
    11      3.180145  1 O  pz                21      2.874038  1 O  dxx        
     4     -2.556376  1 O  s                 26      2.355471  1 O  dzz        
     3      2.215896  1 O  s                 38     -1.987725  2 H  s          
    44     -1.987725  3 H  s                 40     -1.401867  2 H  px         
    46      1.401867  3 H  px                24      0.880500  1 O  dyy        
 
 Vector   30  Occ=0.000000D+00  E= 3.755878D+00  Symmetry=b1
              MO Center=  2.9D-15, -3.3D-18,  1.6D-01, r^2= 1.1D+00
   Bfn.  Coefficient  Atom+Function         Bfn.  Coefficient  Atom+Function  
  ----- ------------  ---------------      ----- ------------  ---------------
     9      4.151347  1 O  px                23      3.278602  1 O  dxz        
    38      1.664950  2 H  s                 44     -1.664950  3 H  s          
    37      1.089974  2 H  s                 43     -1.089974  3 H  s          
    40      1.055643  2 H  px                46      1.055643  3 H  px         
    32     -0.988010  1 O  fxzz              42     -0.941040  2 H  pz         
 
 Vector   31  Occ=0.000000D+00  E= 5.113620D+00  Symmetry=b2
              MO Center=  1.5D-16, -6.1D-16, -1.3D-01, r^2= 4.4D-01
   Bfn.  Coefficient  Atom+Function         Bfn.  Coefficient  Atom+Function  
  ----- ------------  ---------------      ----- ------------  ---------------
    35      2.258507  1 O  fyzz              28     -1.466521  1 O  fxxy       
    33     -0.287068  1 O  fyyy              25     -0.061690  1 O  dyz        
 
 Vector   32  Occ=0.000000D+00  E= 5.213677D+00  Symmetry=a1
              MO Center=  1.5D-17,  2.0D-14, -7.1D-02, r^2= 4.6D-01
   Bfn.  Coefficient  Atom+Function         Bfn.  Coefficient  Atom+Function  
  ----- ------------  ---------------      ----- ------------  ---------------
    34      2.060456  1 O  fyyz              36     -1.011859  1 O  fzzz       
    29      0.469381  1 O  fxxz               5     -0.195540  1 O  s          
    38      0.173977  2 H  s                 44      0.173977  3 H  s          
    40      0.162299  2 H  px                46     -0.162299  3 H  px         
    20     -0.157013  1 O  dzz               14     -0.137454  1 O  pz         
 
 Vector   33  Occ=0.000000D+00  E= 5.380721D+00  Symmetry=b2
              MO Center=  2.8D-15, -1.9D-14, -7.3D-02, r^2= 5.0D-01
   Bfn.  Coefficient  Atom+Function         Bfn.  Coefficient  Atom+Function  
  ----- ------------  ---------------      ----- ------------  ---------------
    28      2.409759  1 O  fxxy              35      1.350783  1 O  fyzz       
    33     -0.498085  1 O  fyyy              10     -0.417081  1 O  py         
    19      0.307570  1 O  dyz               41     -0.256263  2 H  py         
    47     -0.256263  3 H  py                 7     -0.233989  1 O  py         
    13      0.190158  1 O  py                25      0.124376  1 O  dyz        
 
 Vector   34  Occ=0.000000D+00  E= 5.420568D+00  Symmetry=a2
              MO Center= -2.9D-15,  1.7D-17, -3.6D-02, r^2= 4.8D-01
   Bfn.  Coefficient  Atom+Function         Bfn.  Coefficient  Atom+Function  
  ----- ------------  ---------------      ----- ------------  ---------------
    31      3.946068  1 O  fxyz              16      0.474879  1 O  dxy        
    41      0.268807  2 H  py                47     -0.268807  3 H  py         
    22      0.137265  1 O  dxy        
 
 Vector   35  Occ=0.000000D+00  E= 5.482525D+00  Symmetry=b1
              MO Center= -1.5D-16,  2.8D-17, -1.1D-01, r^2= 5.3D-01
   Bfn.  Coefficient  Atom+Function         Bfn.  Coefficient  Atom+Function  
  ----- ------------  ---------------      ----- ------------  ---------------
    32      1.623399  1 O  fxzz              27     -1.255143  1 O  fxxx       
    30      1.083385  1 O  fxyy              23     -0.394717  1 O  dxz        
    42      0.370600  2 H  pz                48     -0.370600  3 H  pz         
    38     -0.316277  2 H  s                 44      0.316277  3 H  s          
     9     -0.266018  1 O  px                12     -0.247167  1 O  px         
 
 Vector   36  Occ=0.000000D+00  E= 5.674165D+00  Symmetry=a1
              MO Center=  1.1D-17, -8.8D-17, -1.2D-01, r^2= 6.6D-01
   Bfn.  Coefficient  Atom+Function         Bfn.  Coefficient  Atom+Function  
  ----- ------------  ---------------      ----- ------------  ---------------
     4      2.633078  1 O  s                 11     -2.593936  1 O  pz         
    34      2.248850  1 O  fyyz              36      1.955520  1 O  fzzz       
    29      1.803020  1 O  fxxz               3     -1.358805  1 O  s          
    24     -0.787122  1 O  dyy               26     -0.756646  1 O  dzz        
     8     -0.673617  1 O  pz                21     -0.675384  1 O  dxx        
 
 Vector   37  Occ=0.000000D+00  E= 5.680187D+00  Symmetry=b2
              MO Center= -1.0D-16,  3.1D-16, -1.3D-01, r^2= 6.4D-01
   Bfn.  Coefficient  Atom+Function         Bfn.  Coefficient  Atom+Function  
  ----- ------------  ---------------      ----- ------------  ---------------
    10      2.562379  1 O  py                33     -2.162353  1 O  fyyy       
    35     -1.681759  1 O  fyzz              28     -1.350732  1 O  fxxy       
     7      0.658738  1 O  py                13     -0.522739  1 O  py         
    19      0.181491  1 O  dyz               41     -0.109324  2 H  py         
    47     -0.109324  3 H  py                25      0.036376  1 O  dyz        
 
 Vector   38  Occ=0.000000D+00  E= 5.770074D+00  Symmetry=b1
              MO Center=  5.4D-15,  1.7D-18, -1.5D-01, r^2= 7.1D-01
   Bfn.  Coefficient  Atom+Function         Bfn.  Coefficient  Atom+Function  
  ----- ------------  ---------------      ----- ------------  ---------------
     9      3.165234  1 O  px                30     -2.689422  1 O  fxyy       
    32     -2.001919  1 O  fxzz              27     -1.870046  1 O  fxxx       
    12     -0.925763  1 O  px                 6      0.566884  1 O  px         
    39     -0.497573  2 H  s                 45      0.497573  3 H  s          
    17      0.299726  1 O  dxz               38      0.205626  2 H  s          
 
 Vector   39  Occ=0.000000D+00  E= 6.070182D+00  Symmetry=b1
              MO Center=  4.2D-16, -2.4D-18,  8.0D-02, r^2= 4.9D-01
   Bfn.  Coefficient  Atom+Function         Bfn.  Coefficient  Atom+Function  
  ----- ------------  ---------------      ----- ------------  ---------------
    32      1.708524  1 O  fxzz              30     -1.279370  1 O  fxyy       
     9      1.272282  1 O  px                17      1.257973  1 O  dxz        
    23      0.942283  1 O  dxz               37      0.666914  2 H  s          
    43     -0.666914  3 H  s                 40      0.644451  2 H  px         
    46      0.644451  3 H  px                38      0.575026  2 H  s          
 
 Vector   40  Occ=0.000000D+00  E= 6.246410D+00  Symmetry=a1
              MO Center= -9.3D-16,  6.4D-16, -5.1D-03, r^2= 4.2D-01
   Bfn.  Coefficient  Atom+Function         Bfn.  Coefficient  Atom+Function  
  ----- ------------  ---------------      ----- ------------  ---------------
     4      7.010083  1 O  s                  3     -3.401585  1 O  s          
    21     -1.529074  1 O  dxx               26     -1.414161  1 O  dzz        
    29      1.377017  1 O  fxxz              24     -1.247503  1 O  dyy        
    18     -1.027618  1 O  dyy               11      0.724282  1 O  pz         
    15      0.647878  1 O  dxx               34     -0.599952  1 O  fyyz       
 
 Vector   41  Occ=0.000000D+00  E= 6.311804D+00  Symmetry=a1
              MO Center= -6.4D-15, -4.1D-16, -1.3D-01, r^2= 7.2D-01
   Bfn.  Coefficient  Atom+Function         Bfn.  Coefficient  Atom+Function  
  ----- ------------  ---------------      ----- ------------  ---------------
     4     37.216548  1 O  s                  3    -19.513645  1 O  s          
    24    -10.063503  1 O  dyy               26    -10.081811  1 O  dzz        
    21     -9.896104  1 O  dxx               15     -0.882086  1 O  dxx        
     5      0.751977  1 O  s                 20     -0.553075  1 O  dzz        
    18     -0.511522  1 O  dyy               29     -0.327424  1 O  fxxz       
 
 Vector   42  Occ=0.000000D+00  E= 6.333637D+00  Symmetry=b2
              MO Center= -4.9D-16, -9.8D-16, -1.2D-01, r^2= 3.4D-01
   Bfn.  Coefficient  Atom+Function         Bfn.  Coefficient  Atom+Function  
  ----- ------------  ---------------      ----- ------------  ---------------
    19      2.006544  1 O  dyz               25     -1.218432  1 O  dyz        
    33      0.358963  1 O  fyyy              10     -0.302016  1 O  py         
    28     -0.294238  1 O  fxxy              41      0.186783  2 H  py         
    47      0.186783  3 H  py                35     -0.080213  1 O  fyzz       
 
 Vector   43  Occ=0.000000D+00  E= 6.394980D+00  Symmetry=a2
              MO Center=  6.1D-16,  5.8D-17, -1.5D-01, r^2= 3.6D-01
   Bfn.  Coefficient  Atom+Function         Bfn.  Coefficient  Atom+Function  
  ----- ------------  ---------------      ----- ------------  ---------------
    16      1.995340  1 O  dxy               22     -1.337364  1 O  dxy        
    31     -1.210481  1 O  fxyz              41     -0.230682  2 H  py         
    47      0.230682  3 H  py         
 
 Vector   44  Occ=0.000000D+00  E= 6.448862D+00  Symmetry=a1
              MO Center=  2.9D-16,  7.1D-16, -1.1D-01, r^2= 3.8D-01
   Bfn.  Coefficient  Atom+Function         Bfn.  Coefficient  Atom+Function  
  ----- ------------  ---------------      ----- ------------  ---------------
     4      3.765864  1 O  s                  3     -1.858966  1 O  s          
    24     -1.298799  1 O  dyy               20     -1.230776  1 O  dzz        
    21     -1.196116  1 O  dxx               11      0.780525  1 O  pz         
    34     -0.737214  1 O  fyyz              15      0.580525  1 O  dxx        
    18      0.460538  1 O  dyy               38     -0.457315  2 H  s          
 
 Vector   45  Occ=0.000000D+00  E= 6.951576D+00  Symmetry=a1
              MO Center= -2.8D-15, -2.5D-18, -1.0D-01, r^2= 6.4D-01
   Bfn.  Coefficient  Atom+Function         Bfn.  Coefficient  Atom+Function  
  ----- ------------  ---------------      ----- ------------  ---------------
    29      2.524542  1 O  fxxz              21      2.490333  1 O  dxx        
    11      1.835746  1 O  pz                 4     -1.800612  1 O  s          
     3      1.409092  1 O  s                 26      1.296709  1 O  dzz        
    34     -1.278355  1 O  fyyz              38     -1.266667  2 H  s          
    44     -1.266667  3 H  s                 37     -0.897618  2 H  s          
 
 Vector   46  Occ=0.000000D+00  E= 7.058373D+00  Symmetry=b1
              MO Center=  7.2D-16, -4.2D-17, -7.0D-02, r^2= 6.2D-01
   Bfn.  Coefficient  Atom+Function         Bfn.  Coefficient  Atom+Function  
  ----- ------------  ---------------      ----- ------------  ---------------
    23      3.451913  1 O  dxz                9      2.839715  1 O  px         
    30     -2.075485  1 O  fxyy              17     -1.717696  1 O  dxz        
    38      1.291440  2 H  s                 44     -1.291440  3 H  s          
    32      1.082222  1 O  fxzz              37      0.978886  2 H  s          
    43     -0.978886  3 H  s                 40      0.720180  2 H  px         
 
 Vector   47  Occ=0.000000D+00  E= 1.645333D+01  Symmetry=a1
              MO Center= -3.9D-17, -2.7D-21, -1.1D-01, r^2= 3.0D-01
   Bfn.  Coefficient  Atom+Function         Bfn.  Coefficient  Atom+Function  
  ----- ------------  ---------------      ----- ------------  ---------------
     4     14.162307  1 O  s                 24     -4.130484  1 O  dyy        
    21     -4.063949  1 O  dxx               26     -4.083390  1 O  dzz        
    15     -3.183093  1 O  dxx               18     -3.183047  1 O  dyy        
    20     -3.185755  1 O  dzz                2     -1.855733  1 O  s          
     5      0.603723  1 O  s                  1     -0.229893  1 O  s          
 
 Vector   48  Occ=0.000000D+00  E= 7.166916D+01  Symmetry=a1
              MO Center= -2.0D-17,  8.9D-20, -1.1D-01, r^2= 7.4D-02
   Bfn.  Coefficient  Atom+Function         Bfn.  Coefficient  Atom+Function  
  ----- ------------  ---------------      ----- ------------  ---------------
     3     10.499257  1 O  s                  4     -4.895815  1 O  s          
     2     -4.130056  1 O  s                 15     -2.635267  1 O  dxx        
    18     -2.634595  1 O  dyy               20     -2.635879  1 O  dzz        
     1      1.705823  1 O  s                 21      0.729593  1 O  dxx        
     5      0.725432  1 O  s                 26      0.723819  1 O  dzz        
 

 center of mass
 --------------
 x =   0.00000000 y =   0.00000000 z =  -0.09427042

 moments of inertia (a.u.)
 ------------------
           2.173693110714           0.000000000000           0.000000000000
           0.000000000000           6.343860153016           0.000000000000
           0.000000000000           0.000000000000           4.170167042302
 
     Multipole analysis of the density
     ---------------------------------
 
     L   x y z        total         alpha         beta         nuclear
     -   - - -        -----         -----         ----         -------
     0   0 0 0     -0.000000     -5.000000     -5.000000     10.000000
 
     1   1 0 0     -0.000000     -0.000000     -0.000000      0.000000
     1   0 1 0      0.000000      0.000000      0.000000      0.000000
     1   0 0 1      0.813115      0.392580      0.392580      0.027955
 
     2   2 0 0     -3.199217     -3.668503     -3.668503      4.137789
     2   1 1 0      0.000000      0.000000      0.000000      0.000000
     2   1 0 1     -0.000000     -0.000000     -0.000000      0.000000
     2   0 2 0     -5.605357     -2.802678     -2.802678      0.000000
     2   0 1 1      0.000000      0.000000      0.000000      0.000000
     2   0 0 2     -4.664543     -3.303756     -3.303756      1.942969
 

 Parallel integral file used      19 records with       0 large values


 Task  times  cpu:        3.1s     wall:        3.3s
 
 
                                NWChem Input Module
                                -------------------
 
 
 
  Limits (a.u.) specified for the density plot:
  ---------------------------------------------
 
        From        To      # of spacings
X   -11.33836    11.33836       120
Y   -11.33836    11.33836       120
Z   -11.33836    11.33836       120
 
  Total number of grid points =                1771561
 
  1-st set of MOs      : dft.movecs
  Output is written to : h2o_spindens.cube
  Type of picture      : CHARGE DENSITY
  Format used          : Gaussian9x Cube
  Spin                 : SPINDENS
  The density is computed using all orbitals
  The density is computed on the specified grid
  Grid minima (bohr) -11.338359-11.338359-11.338359
  Grid maxima (bohr)  11.338359 11.338359 11.338359
  max element   0.000000000000000E+000
 
  Tol_rho              =                    0.10000E-39
  Sum of elements      =                        0.00000
  Integration volume   =                        0.00675
  Integrated Charge    =                        0.00000

 Task  times  cpu:        1.7s     wall:        5.5s
 
 
                                NWChem Input Module
                                -------------------
 
 
 Summary of allocated global arrays
-----------------------------------
  No active global arrays


MA_summarize_allocated_blocks: starting scan ...
MA_summarize_allocated_blocks: scan completed: 0 heap blocks, 0 stack blocks
MA usage statistics:

	allocation statistics:
					      heap	     stack
					      ----	     -----
	current number of blocks	         0	         0
	maximum number of blocks	        25	        57
	current total bytes		         0	         0
	maximum total bytes		   2285232	  89019992
	maximum total K-bytes		      2286	     89020
	maximum total M-bytes		         3	        90
 
 
                                     CITATION
                                     --------
                Please cite the following reference when publishing
                           results obtained with NWChem:
 
          E. Apra, E. J. Bylaska, W. A. de Jong, N. Govind, K. Kowalski,
       T. P. Straatsma, M. Valiev, H. J. J. van Dam, Y. Alexeev, J. Anchell,
       V. Anisimov, F. W. Aquino, R. Atta-Fynn, J. Autschbach, N. P. Bauman,
     J. C. Becca, D. E. Bernholdt, K. Bhaskaran-Nair, S. Bogatko, P. Borowski,
         J. Boschen, J. Brabec, A. Bruner, E. Cauet, Y. Chen, G. N. Chuev,
      C. J. Cramer, J. Daily, M. J. O. Deegan, T. H. Dunning Jr., M. Dupuis,
   K. G. Dyall, G. I. Fann, S. A. Fischer, A. Fonari, H. Fruchtl, L. Gagliardi,
      J. Garza, N. Gawande, S. Ghosh, K. Glaesemann, A. W. Gotz, J. Hammond,
       V. Helms, E. D. Hermes, K. Hirao, S. Hirata, M. Jacquelin, L. Jensen,
   B. G. Johnson, H. Jonsson, R. A. Kendall, M. Klemm, R. Kobayashi, V. Konkov,
      S. Krishnamoorthy, M. Krishnan, Z. Lin, R. D. Lins, R. J. Littlefield,
      A. J. Logsdail, K. Lopata, W. Ma, A. V. Marenich, J. Martin del Campo,
   D. Mejia-Rodriguez, J. E. Moore, J. M. Mullin, T. Nakajima, D. R. Nascimento,
    J. A. Nichols, P. J. Nichols, J. Nieplocha, A. Otero-de-la-Roza, B. Palmer,
    A. Panyala, T. Pirojsirikul, B. Peng, R. Peverati, J. Pittner, L. Pollack,
   R. M. Richard, P. Sadayappan, G. C. Schatz, W. A. Shelton, D. W. Silverstein,
   D. M. A. Smith, T. A. Soares, D. Song, M. Swart, H. L. Taylor, G. S. Thomas,
            V. Tipparaju, D. G. Truhlar, K. Tsemekhman, T. Van Voorhis,
      A. Vazquez-Mayagoitia, P. Verma, O. Villa, A. Vishnu, K. D. Vogiatzis,
        D. Wang, J. H. Weare, M. J. Williamson, T. L. Windus, K. Wolinski,
        A. T. Wong, Q. Wu, C. Yang, Q. Yu, M. Zacharias, Z. Zhang, Y. Zhao,
                                and R. J. Harrison
                        "NWChem: Past, present, and future
                         J. Chem. Phys. 152, 184102 (2020)
                               doi:10.1063/5.0004997
 
                                      AUTHORS
                                      -------
  E. Apra, E. J. Bylaska, N. Govind, K. Kowalski, M. Valiev, D. Mejia-Rodriguez,
       A. Kunitsa, N. P. Bauman, A. Panyala, W. A. de Jong, T. P. Straatsma,
   H. J. J. van Dam, D. Wang, T. L. Windus, J. Hammond, J. Autschbach, A. Woods,
    K. Bhaskaran-Nair, J. Brabec, K. Lopata, S. A. Fischer, S. Krishnamoorthy,
     M. Jacquelin, W. Ma, M. Klemm, O. Villa, Y. Chen, V. Anisimov, F. Aquino,
     S. Hirata, M. T. Hackler, E. Hermes, L. Jensen, J. E. Moore, J. C. Becca,
      V. Konjkov, T. Risthaus, M. Malagoli, A. Marenich, A. Otero-de-la-Roza,
        J. Mullin, P. Nichols, R. Peverati, J. Pittner, Y. Zhao, P.-D. Fan,
        A. Fonari, M. J. Williamson, R. J. Harrison, J. R. Rehr, M. Dupuis,
     D. Silverstein, D. M. A. Smith, J. Nieplocha, V. Tipparaju, M. Krishnan,
     B. E. Van Kuiken, A. Vazquez-Mayagoitia, M. Swart, Q. Wu, T. Van Voorhis,
     A. A. Auer, M. Nooijen, L. D. Crosby, E. Brown, G. Cisneros, G. I. Fann,
   H. Fruchtl, J. Garza, K. Hirao, R. A. Kendall, J. A. Nichols, K. Tsemekhman,
    K. Wolinski, J. Anchell, D. E. Bernholdt, P. Borowski, T. Clark, D. Clerc,
   H. Dachsel, M. J. O. Deegan, K. Dyall, D. Elwood, E. Glendening, M. Gutowski,
   A. C. Hess, J. Jaffe, B. G. Johnson, J. Ju, R. Kobayashi, R. Kutteh, Z. Lin,
   R. Littlefield, X. Long, B. Meng, T. Nakajima, S. Niu, L. Pollack, M. Rosing,
   K. Glaesemann, G. Sandrone, M. Stave, H. Taylor, G. Thomas, J. H. van Lenthe,
                               A. T. Wong, Z. Zhang.

 Total times  cpu:       22.9s     wall:       28.2s
