 argument  1 = methane.nw
 


============================== echo of input deck ==============================
start methane
title "methane opt+freq (B3LYP/6-31g*)"
echo

geometry units angstrom
  C  0.000000  0.000000  0.000000
  H  0.629312  0.629312  0.629312
  H  0.629312  -0.629312  -0.629312
  H  -0.629312  0.629312  -0.629312
  H  -0.629312  -0.629312  0.629312
end

charge 0

basis
  * library 6-31g*
end

dft
  xc b3lyp
  grid xfine
end

driver
  maxiter 200
end

task dft optimize
task dft freq
================================================================================


                                         
                                         
 
 
             Northwest Computational Chemistry Package (NWChem) 7.2.2
             --------------------------------------------------------
 
 
                    Environmental Molecular Sciences Laboratory
                       Pacific Northwest National Laboratory
                                Richland, WA 99352
 
                              Copyright (c) 1994-2022
                       Pacific Northwest National Laboratory
                            Battelle Memorial Institute
 
             NWChem is an open-source computational chemistry package
                        distributed under the terms of the
                      Educational Community License (ECL) 2.0
             A copy of the license is included with this distribution
                              in the LICENSE.TXT file
 
                                  ACKNOWLEDGMENT
                                  --------------

            This software and its documentation were developed at the
            EMSL at Pacific Northwest National Laboratory, a multiprogram
            national laboratory, operated for the U.S. Department of Energy
            by Battelle under Contract Number DE-AC05-76RL01830. Support
            for this work was provided by the Department of Energy Office
            of Biological and Environmental Research, Office of Basic
            Energy Sciences, and the Office of Advanced Scientific Computing.


           Job information
           ---------------

    hostname        = charliebox
    program         = /apps/nwchem/bin/nwchem
    date            = Sun Oct 19 14:55:40 2025

    compiled        = Tue_Apr_23_01:04:59_2024
    source          = /apps/nwchem-7.2.2-release
    nwchem branch   = 7.2.2
    nwchem revision = N/A
    ga revision     = 5.8.0
    use scalapack   = T
    input           = methane.nw
    prefix          = methane.
    data base       = ./methane.db
    status          = startup
    nproc           =       19
    time left       =     -1s



           Memory information
           ------------------

    heap     =   26214394 doubles =    200.0 Mbytes
    stack    =   26214399 doubles =    200.0 Mbytes
    global   =   52428800 doubles =    400.0 Mbytes (distinct from heap & stack)
    total    =  104857593 doubles =    800.0 Mbytes
    verify   = yes
    hardfail = no 


           Directory information
           ---------------------
 
  0 permanent = .
  0 scratch   = .
 
 
 
 
                                NWChem Input Module
                                -------------------
 
 
                          methane opt+freq (B3LYP/6-31g*)
                          -------------------------------

 Scaling coordinates for geometry "geometry" by  1.889725989
 (inverse scale =  0.529177249)

 TD  symmetry detected

          ------
          auto-z
          ------
  Looking for out-of-plane bends
  no constraints, skipping   0.000000000000000E+000
  no constraints, skipping   0.000000000000000E+000
 
 
                             Geometry "geometry" -> ""
                             -------------------------
 
 Output coordinates in angstroms (scale by  1.889725989 to convert to a.u.)
 
  No.       Tag          Charge          X              Y              Z
 ---- ---------------- ---------- -------------- -------------- --------------
    1 C                    6.0000     0.00000000     0.00000000     0.00000000
    2 H                    1.0000     0.62931200     0.62931200     0.62931200
    3 H                    1.0000    -0.62931200    -0.62931200     0.62931200
    4 H                    1.0000     0.62931200    -0.62931200    -0.62931200
    5 H                    1.0000    -0.62931200     0.62931200    -0.62931200
 
      Atomic Mass 
      ----------- 
 
      C                 12.000000
      H                  1.007825
 

 Effective nuclear repulsion energy (a.u.)      13.4353858110

            Nuclear Dipole moment (a.u.) 
            ----------------------------
        X                 Y               Z
 ---------------- ---------------- ----------------
     0.0000000000     0.0000000000     0.0000000000
 
      Symmetry information
      --------------------
 
 Group name              Td       
 Group number             42
 Group order              24
 No. of unique centers     2
 
      Symmetry unique atoms
 
     1    2
 


                                Z-matrix (autoz)
                                -------- 

 Units are Angstrom for bonds and degrees for angles
 
      Type          Name      I     J     K     L     M      Value
      ----------- --------  ----- ----- ----- ----- ----- ----------
    1 Stretch                  1     2                       1.09000
    2 Stretch                  1     3                       1.09000
    3 Stretch                  1     4                       1.09000
    4 Stretch                  1     5                       1.09000
    5 Bend                     2     1     3               109.47122
    6 Bend                     2     1     4               109.47122
    7 Bend                     2     1     5               109.47122
    8 Bend                     3     1     4               109.47122
    9 Bend                     3     1     5               109.47122
   10 Bend                     4     1     5               109.47122
 
 
            XYZ format geometry
            -------------------
     5
 geometry
 C                     0.00000000     0.00000000     0.00000000
 H                     0.62931200     0.62931200     0.62931200
 H                    -0.62931200    -0.62931200     0.62931200
 H                     0.62931200    -0.62931200    -0.62931200
 H                    -0.62931200     0.62931200    -0.62931200
 
 ==============================================================================
                                internuclear distances
 ------------------------------------------------------------------------------
       center one      |      center two      | atomic units |  angstroms
 ------------------------------------------------------------------------------
    2 H                |   1 C                |     2.05980  |     1.09000
    3 H                |   1 C                |     2.05980  |     1.09000
    4 H                |   1 C                |     2.05980  |     1.09000
    5 H                |   1 C                |     2.05980  |     1.09000
 ------------------------------------------------------------------------------
                         number of included internuclear distances:          4
 ==============================================================================



 ==============================================================================
                                 internuclear angles
 ------------------------------------------------------------------------------
        center 1       |       center 2       |       center 3       |  degrees
 ------------------------------------------------------------------------------
    2 H                |   1 C                |   3 H                |   109.47
    2 H                |   1 C                |   4 H                |   109.47
    2 H                |   1 C                |   5 H                |   109.47
    3 H                |   1 C                |   4 H                |   109.47
    3 H                |   1 C                |   5 H                |   109.47
    4 H                |   1 C                |   5 H                |   109.47
 ------------------------------------------------------------------------------
                            number of included internuclear angles:          6
 ==============================================================================



  library name resolved from: environment
  library file name is: </apps/nwchem/data/libraries/>
  


 Summary of "ao basis" -> "" (cartesian)
 ------------------------------------------------------------------------------
       Tag                 Description            Shells   Functions and Types
 ---------------- ------------------------------  ------  ---------------------
 *                           6-31g*                   on all atoms 


 
 
                           NWChem Geometry Optimization
                           ----------------------------
 
 
 
 
                          methane opt+freq (B3LYP/6-31g*)
 
 
  no constraints, skipping   0.000000000000000E+000
 maximum gradient threshold         (gmax) =   0.000450
 rms gradient threshold             (grms) =   0.000300
 maximum cartesian step threshold   (xmax) =   0.001800
 rms cartesian step threshold       (xrms) =   0.001200
 fixed trust radius                (trust) =   0.300000
 maximum step size to saddle      (sadstp) =   0.100000
 energy precision                  (eprec) =   5.0D-06
 maximum number of steps          (nptopt) =  200
 initial hessian option           (inhess) =    0
 line search option               (linopt) =    1
 hessian update option            (modupd) =    1
 saddle point option              (modsad) =    0
 initial eigen-mode to follow     (moddir) =    0
 initial variable to follow       (vardir) =    0
 follow first negative mode     (firstneg) =    T
 apply conjugacy                    (opcg) =    F
 source of zmatrix                         =   autoz   


          -------------------
          Energy Minimization
          -------------------

 
 Names of Z-matrix variables 
    1              2              3              4              5         
    6              7              8              9             10         
 
 Variables with the same non-blank name are constrained to be equal
 
 
 Using old Hessian from previous optimization

          --------
          Step   0
          --------
 
 
                         Geometry "geometry" -> "geometry"
                         ---------------------------------
 
 Output coordinates in angstroms (scale by  1.889725989 to convert to a.u.)
 
  No.       Tag          Charge          X              Y              Z
 ---- ---------------- ---------- -------------- -------------- --------------
    1 C                    6.0000     0.00000000     0.00000000     0.00000000
    2 H                    1.0000     0.62931200     0.62931200     0.62931200
    3 H                    1.0000    -0.62931200    -0.62931200     0.62931200
    4 H                    1.0000     0.62931200    -0.62931200    -0.62931200
    5 H                    1.0000    -0.62931200     0.62931200    -0.62931200
 
      Atomic Mass 
      ----------- 
 
      C                 12.000000
      H                  1.007825
 

 Effective nuclear repulsion energy (a.u.)      13.4353858110

            Nuclear Dipole moment (a.u.) 
            ----------------------------
        X                 Y               Z
 ---------------- ---------------- ----------------
     0.0000000000     0.0000000000     0.0000000000
 
      Symmetry information
      --------------------
 
 Group name              Td       
 Group number             42
 Group order              24
 No. of unique centers     2
 
      Symmetry unique atoms
 
     1    2
 
 
                                 NWChem DFT Module
                                 -----------------
 
 
                          methane opt+freq (B3LYP/6-31g*)
 
 
                      Basis "ao basis" -> "ao basis" (cartesian)
                      -----
  C (Carbon)
  ----------
            Exponent  Coefficients 
       -------------- ---------------------------------------------------------
  1 S  3.04752490E+03  0.001835
  1 S  4.57369510E+02  0.014037
  1 S  1.03948690E+02  0.068843
  1 S  2.92101550E+01  0.232184
  1 S  9.28666300E+00  0.467941
  1 S  3.16392700E+00  0.362312
 
  2 S  7.86827240E+00 -0.119332
  2 S  1.88128850E+00 -0.160854
  2 S  5.44249300E-01  1.143456
 
  3 P  7.86827240E+00  0.068999
  3 P  1.88128850E+00  0.316424
  3 P  5.44249300E-01  0.744308
 
  4 S  1.68714400E-01  1.000000
 
  5 P  1.68714400E-01  1.000000
 
  6 D  8.00000000E-01  1.000000
 
  H (Hydrogen)
  ------------
            Exponent  Coefficients 
       -------------- ---------------------------------------------------------
  1 S  1.87311370E+01  0.033495
  1 S  2.82539370E+00  0.234727
  1 S  6.40121700E-01  0.813757
 
  2 S  1.61277800E-01  1.000000
 


 Summary of "ao basis" -> "ao basis" (cartesian)
 ------------------------------------------------------------------------------
       Tag                 Description            Shells   Functions and Types
 ---------------- ------------------------------  ------  ---------------------
 C                           6-31g*                  6       15   3s2p1d
 H                           6-31g*                  2        2   2s




 Summary of "ao basis" -> "ao basis" (cartesian)
 ------------------------------------------------------------------------------
       Tag                 Description            Shells   Functions and Types
 ---------------- ------------------------------  ------  ---------------------
 C                           6-31g*                  6       15   3s2p1d
 H                           6-31g*                  2        2   2s


      Symmetry analysis of basis
      --------------------------
 
        a1          6
        a2          0
        e           2
        t1          0
        t2         15
 
  Caching 1-el integrals 
 
            General Information
            -------------------
          SCF calculation type: DFT
          Wavefunction type:  closed shell.
          No. of atoms     :     5
          No. of electrons :    10
           Alpha electrons :     5
            Beta electrons :     5
          Charge           :     0
          Spin multiplicity:     1
          Use of symmetry is: on ; symmetry adaption is: on 
          Maximum number of iterations:  50
          AO basis - number of functions:    23
                     number of shells:    14
          Convergence on energy requested:  1.00D-06
          Convergence on density requested:  1.00D-05
          Convergence on gradient requested:  5.00D-04
 
              XC Information
              --------------
                         B3LYP Method XC Potential
                     Hartree-Fock (Exact) Exchange  0.200          
                        Slater Exchange Functional  0.800 local    
                    Becke 1988 Exchange Functional  0.720 non-local
              Lee-Yang-Parr Correlation Functional  0.810          
                  VWN I RPA Correlation Functional  0.190 local    
 
             Grid Information
             ----------------
          Grid used for XC integration:  xfine     
          Radial quadrature: Mura-Knowles        
          Angular quadrature: Lebedev. 
          Tag              B.-S. Rad. Rad. Pts. Rad. Cut. Ang. Pts.
          ---              ---------- --------- --------- ---------
          C                   0.70      100           6.0      1454
          H                   0.35      100           7.0      1202
          Grid pruning is: on 
          Number of quadrature shells:   200
          Spatial weights used:  Erf1
 
          Convergence Information
          -----------------------
          Convergence aids based upon iterative change in 
          total energy or number of iterations. 
          Levelshifting, if invoked, occurs when the 
          HOMO/LUMO gap drops below (HL_TOL):  1.00D-02
          DIIS, if invoked, will attempt to extrapolate 
          using up to (NFOCK): 10 stored Fock matrices.

                    Damping( 0%)  Levelshifting(0.5)       DIIS
                  --------------- ------------------- ---------------
          dE  on:    start            ASAP                start   
          dE off:    2 iters         50 iters            50 iters 

 
      Screening Tolerance Information
      -------------------------------
          Density screening/tol_rho:  1.00D-10
          AO Gaussian exp screening on grid/accAOfunc:  14
          CD Gaussian exp screening on grid/accCDfunc:  20
          XC Gaussian exp screening on grid/accXCfunc:  20
          Schwarz screening/accCoul:  1.00D-08

 
      Superposition of Atomic Density Guess
      -------------------------------------
 
 Sum of atomic energies:         -39.65318430
 
      Non-variational initial energy
      ------------------------------

 Total energy =     -40.240701
 1-e energy   =     -78.366487
 2-e energy   =      24.690401
 HOMO         =      -0.509849
 LUMO         =       0.160181
 
 
      Symmetry analysis of molecular orbitals - initial
      -------------------------------------------------
 
  Numbering of irreducible representations: 
 
     1 a1          2 a2          3 e           4 t1          5 t2      
 
  Orbital symmetries:
 
     1 a1          2 a1          3 t2          4 t2          5 t2      
     6 a1          7 t2          8 t2          9 t2         10 t2      
    11 t2         12 t2         13 t2         14 t2         15 t2      
 
  WARNING: movecs_in_org=atomic not equal to movecs_in=./methane.movecs
   Time after variat. SCF:      6.3
   Time prior to 1st pass:      6.6

 #quartets = 1.101D+03 #integrals = 8.767D+03 #direct =  0.0% #cached =100.0%


 Integral file          = ./methane.aoints.00
 Record size in doubles =  65536        No. of integs per rec  =  43688
 Max. records in memory =      3        Max. records in file   = 224872
 No. of bits per label  =      8        No. of bits per value  =     64


File balance: exchanges=     0  moved=     0  time=   0.0


 Grid_pts file          = ./methane.gridpts.00
 Record size in doubles =  12289        No. of grid_pts per rec  =   3070
 Max. records in memory =      7        Max. recs in file   =   1199223


           Memory utilization after 1st SCF pass: 
           Heap Space remaining (MW):       25.93            25929682
          Stack Space remaining (MW):       26.21            26214108

   convergence    iter        energy       DeltaE   RMS-Dens  Diis-err    time
 ---------------- ----- ----------------- --------- --------- ---------  ------
 d= 0,ls=0.0,diis     1    -40.5079719629 -5.39D+01  1.04D-02  1.12D-01     7.9
 d= 0,ls=0.0,diis     2    -40.5175275075 -9.56D-03  3.26D-03  7.13D-03     9.0
 d= 0,ls=0.0,diis     3    -40.5177643403 -2.37D-04  1.72D-03  4.69D-03     9.1
 d= 0,ls=0.0,diis     4    -40.5183553891 -5.91D-04  5.11D-05  4.85D-06     9.5
 d= 0,ls=0.0,diis     5    -40.5183560535 -6.64D-07  1.42D-06  6.17D-10     9.5


         Total DFT energy =      -40.518356053511
      One electron energy =      -79.834092795402
           Coulomb energy =       32.786879999618
    Exchange-Corr. energy =       -6.906529068689
 Nuclear repulsion energy =       13.435385810962

 Numeric. integr. density =        9.999999992108

     Total iterative time =      2.8s


 
                  Occupations of the irreducible representations
                  ----------------------------------------------
 
                     irrep           alpha         beta
                     --------     --------     --------
                     a1                2.0          2.0
                     a2                0.0          0.0
                     e                 0.0          0.0
                     t1                0.0          0.0
                     t2                3.0          3.0
 
 
                       DFT Final Molecular Orbital Analysis
                       ------------------------------------
 
 Vector    1  Occ=2.000000D+00  E=-1.016558D+01  Symmetry=a1
              MO Center= -1.1D-18, -2.9D-18, -2.2D-18, r^2= 2.8D-02
   Bfn.  Coefficient  Atom+Function         Bfn.  Coefficient  Atom+Function  
  ----- ------------  ---------------      ----- ------------  ---------------
     1      0.992799  1 C  s                  2      0.049828  1 C  s          
 
 Vector    2  Occ=2.000000D+00  E=-6.912960D-01  Symmetry=a1
              MO Center=  2.1D-16, -5.9D-17, -8.5D-16, r^2= 1.0D+00
   Bfn.  Coefficient  Atom+Function         Bfn.  Coefficient  Atom+Function  
  ----- ------------  ---------------      ----- ------------  ---------------
     2      0.380303  1 C  s                  6      0.360382  1 C  s          
     1     -0.198561  1 C  s                 16      0.135012  2 H  s          
    18      0.135012  3 H  s                 20      0.135012  4 H  s          
    22      0.135012  5 H  s                 17      0.038543  2 H  s          
    19      0.038543  3 H  s                 21      0.038543  4 H  s          
 
 Vector    3  Occ=2.000000D+00  E=-3.896112D-01  Symmetry=t2
              MO Center= -1.2D-01, -1.2D-01,  2.8D-01, r^2= 1.2D+00
   Bfn.  Coefficient  Atom+Function         Bfn.  Coefficient  Atom+Function  
  ----- ------------  ---------------      ----- ------------  ---------------
     3      0.303019  1 C  px                 4      0.300285  1 C  py         
    18     -0.279339  3 H  s                 19     -0.235095  3 H  s          
    16      0.178438  2 H  s                 17      0.150175  2 H  s          
     7      0.145393  1 C  px                 8      0.144081  1 C  py         
     5     -0.132978  1 C  pz                 9     -0.063805  1 C  pz         
 
 Vector    4  Occ=2.000000D+00  E=-3.896112D-01  Symmetry=t2
              MO Center=  2.5D-01, -3.3D-02, -1.7D-02, r^2= 1.2D+00
   Bfn.  Coefficient  Atom+Function         Bfn.  Coefficient  Atom+Function  
  ----- ------------  ---------------      ----- ------------  ---------------
     5      0.396784  1 C  pz                20     -0.238300  4 H  s          
    16      0.217295  2 H  s                  4      0.203645  1 C  py         
    21     -0.200556  4 H  s                  9      0.190382  1 C  pz         
    17      0.182878  2 H  s                  8      0.097712  1 C  py         
    18      0.083777  3 H  s                 19      0.070508  3 H  s          
 
 Vector    5  Occ=2.000000D+00  E=-3.896112D-01  Symmetry=t2
              MO Center= -1.2D-01,  1.6D-01, -2.6D-01, r^2= 1.2D+00
   Bfn.  Coefficient  Atom+Function         Bfn.  Coefficient  Atom+Function  
  ----- ------------  ---------------      ----- ------------  ---------------
     3      0.327243  1 C  px                22     -0.282560  5 H  s          
     4     -0.260831  1 C  py                23     -0.237806  5 H  s          
    20      0.163660  4 H  s                  5      0.156698  1 C  pz         
     7      0.157015  1 C  px                21      0.137738  4 H  s          
     8     -0.125150  1 C  py                16      0.084646  2 H  s          
 
 Vector    6  Occ=0.000000D+00  E= 1.187142D-01  Symmetry=a1
              MO Center= -3.0D-15, -1.5D-14,  9.5D-15, r^2= 3.7D+00
   Bfn.  Coefficient  Atom+Function         Bfn.  Coefficient  Atom+Function  
  ----- ------------  ---------------      ----- ------------  ---------------
     6      2.624417  1 C  s                 17     -0.996077  2 H  s          
    19     -0.996077  3 H  s                 21     -0.996077  4 H  s          
    23     -0.996077  5 H  s                  2      0.194959  1 C  s          
     1     -0.162715  1 C  s          
 
 Vector    7  Occ=0.000000D+00  E= 1.775598D-01  Symmetry=t2
              MO Center= -5.1D-01, -1.0D-01,  7.0D-02, r^2= 2.8D+00
   Bfn.  Coefficient  Atom+Function         Bfn.  Coefficient  Atom+Function  
  ----- ------------  ---------------      ----- ------------  ---------------
    19      1.621177  3 H  s                 23     -1.374090  5 H  s          
     9     -1.128297  1 C  pz                 8      0.752630  1 C  py         
    21     -0.422658  4 H  s                  5     -0.316733  1 C  pz         
     4      0.211277  1 C  py                17      0.175571  2 H  s          
     7      0.155163  1 C  px                18      0.108826  3 H  s          
 
 Vector    8  Occ=0.000000D+00  E= 1.775598D-01  Symmetry=t2
              MO Center=  5.1D-01,  8.5D-02,  1.2D-01, r^2= 2.8D+00
   Bfn.  Coefficient  Atom+Function         Bfn.  Coefficient  Atom+Function  
  ----- ------------  ---------------      ----- ------------  ---------------
    17      1.644719  2 H  s                 21     -1.351458  4 H  s          
     8     -1.113448  1 C  py                 9     -0.768050  1 C  pz         
    19     -0.421644  3 H  s                  4     -0.312565  1 C  py         
     5     -0.215605  1 C  pz                 7     -0.184158  1 C  px         
    23      0.128383  5 H  s                 16      0.110406  2 H  s          
 
 Vector    9  Occ=0.000000D+00  E= 1.775598D-01  Symmetry=t2
              MO Center= -3.6D-03,  2.0D-02, -1.9D-01, r^2= 3.1D+00
   Bfn.  Coefficient  Atom+Function         Bfn.  Coefficient  Atom+Function  
  ----- ------------  ---------------      ----- ------------  ---------------
     7      1.343723  1 C  px                23      1.280526  5 H  s          
    21     -1.240675  4 H  s                 17     -0.899126  2 H  s          
    19      0.859275  3 H  s                  3      0.377207  1 C  px         
     8     -0.239506  1 C  py                22      0.085959  5 H  s          
    20     -0.083284  4 H  s                  4     -0.067234  1 C  py         
 
 Vector   10  Occ=0.000000D+00  E= 5.322796D-01  Symmetry=t2
              MO Center=  9.3D-02,  1.5D-01, -1.1D-01, r^2= 2.1D+00
   Bfn.  Coefficient  Atom+Function         Bfn.  Coefficient  Atom+Function  
  ----- ------------  ---------------      ----- ------------  ---------------
     7      1.013250  1 C  px                 9     -0.820592  1 C  pz         
     8      0.643762  1 C  py                 3     -0.530772  1 C  px         
    18      0.487097  3 H  s                  5      0.429852  1 C  pz         
     4     -0.337223  1 C  py                20     -0.233970  4 H  s          
    19      0.223321  3 H  s                 16     -0.164440  2 H  s          
 
 Vector   11  Occ=0.000000D+00  E= 5.322796D-01  Symmetry=t2
              MO Center= -2.0D-02,  1.2D-02,  1.6D-01, r^2= 2.1D+00
   Bfn.  Coefficient  Atom+Function         Bfn.  Coefficient  Atom+Function  
  ----- ------------  ---------------      ----- ------------  ---------------
     8      1.257651  1 C  py                 7     -0.724023  1 C  px         
     4     -0.658797  1 C  py                20      0.407808  4 H  s          
     3      0.379266  1 C  px                22     -0.371386  5 H  s          
    21      0.186969  4 H  s                 23     -0.170270  5 H  s          
    12     -0.151930  1 C  dxz               16     -0.123123  2 H  s          
 
 Vector   12  Occ=0.000000D+00  E= 5.322796D-01  Symmetry=t2
              MO Center= -7.2D-02, -1.6D-01, -4.5D-02, r^2= 2.1D+00
   Bfn.  Coefficient  Atom+Function         Bfn.  Coefficient  Atom+Function  
  ----- ------------  ---------------      ----- ------------  ---------------
     9      1.196881  1 C  pz                 7      0.750727  1 C  px         
     5     -0.626963  1 C  pz                16     -0.450537  2 H  s          
     3     -0.393254  1 C  px                 8      0.344035  1 C  py         
    22      0.315262  5 H  s                 17     -0.206559  2 H  s          
     4     -0.180216  1 C  py                20      0.155351  4 H  s          
 
 Vector   13  Occ=0.000000D+00  E= 9.002317D-01  Symmetry=t2
              MO Center= -4.1D-01,  2.0D-01, -2.4D-01, r^2= 1.9D+00
   Bfn.  Coefficient  Atom+Function         Bfn.  Coefficient  Atom+Function  
  ----- ------------  ---------------      ----- ------------  ---------------
    23      1.649184  5 H  s                 19     -0.956406  3 H  s          
     8     -0.882680  1 C  py                22     -0.856168  5 H  s          
     9      0.736031  1 C  pz                 4      0.614372  1 C  py         
     5     -0.512300  1 C  pz                18      0.496515  3 H  s          
    21     -0.464417  4 H  s                  7      0.430385  1 C  px         
 
 Vector   14  Occ=0.000000D+00  E= 9.002317D-01  Symmetry=t2
              MO Center=  1.2D-01,  1.7D-01,  4.3D-01, r^2= 2.0D+00
   Bfn.  Coefficient  Atom+Function         Bfn.  Coefficient  Atom+Function  
  ----- ------------  ---------------      ----- ------------  ---------------
    17      1.564016  2 H  s                 19     -1.125001  3 H  s          
     7     -0.970104  1 C  px                16     -0.811954  2 H  s          
     8     -0.700436  1 C  py                 3      0.675222  1 C  px         
    18      0.584040  3 H  s                  4      0.487525  1 C  py         
    23     -0.436546  5 H  s                 14     -0.280512  1 C  dyz        
 
 Vector   15  Occ=0.000000D+00  E= 9.002317D-01  Symmetry=t2
              MO Center=  2.9D-01, -3.6D-01, -1.9D-01, r^2= 1.9D+00
   Bfn.  Coefficient  Atom+Function         Bfn.  Coefficient  Atom+Function  
  ----- ------------  ---------------      ----- ------------  ---------------
    21      1.646534  4 H  s                  9      0.943382  1 C  pz         
    19     -0.863958  3 H  s                 20     -0.854793  4 H  s          
     5     -0.656623  1 C  pz                17     -0.654575  2 H  s          
     7     -0.616250  1 C  px                 8      0.486171  1 C  py         
    18      0.448521  3 H  s                  3      0.428929  1 C  px         
 
 Vector   16  Occ=0.000000D+00  E= 9.523447D-01  Symmetry=a1
              MO Center=  1.7D-15, -1.8D-15, -2.5D-15, r^2= 1.9D+00
   Bfn.  Coefficient  Atom+Function         Bfn.  Coefficient  Atom+Function  
  ----- ------------  ---------------      ----- ------------  ---------------
     6      1.110569  1 C  s                  2     -0.811015  1 C  s          
    16      0.652082  2 H  s                 18      0.652082  3 H  s          
    20      0.652082  4 H  s                 22      0.652082  5 H  s          
    17     -0.539288  2 H  s                 19     -0.539288  3 H  s          
    21     -0.539288  4 H  s                 23     -0.539288  5 H  s          
 
 Vector   17  Occ=0.000000D+00  E= 1.100837D+00  Symmetry=a1
              MO Center=  3.4D-15, -6.0D-16, -3.8D-15, r^2= 2.3D+00
   Bfn.  Coefficient  Atom+Function         Bfn.  Coefficient  Atom+Function  
  ----- ------------  ---------------      ----- ------------  ---------------
     6      5.480000  1 C  s                  2     -2.059935  1 C  s          
    17     -1.041466  2 H  s                 19     -1.041466  3 H  s          
    21     -1.041466  4 H  s                 23     -1.041466  5 H  s          
    16     -0.292070  2 H  s                 18     -0.292070  3 H  s          
    20     -0.292070  4 H  s                 22     -0.292070  5 H  s          
 
 Vector   18  Occ=0.000000D+00  E= 1.655870D+00  Symmetry=e
              MO Center=  4.8D-17, -8.2D-18,  3.9D-17, r^2= 6.1D-01
   Bfn.  Coefficient  Atom+Function         Bfn.  Coefficient  Atom+Function  
  ----- ------------  ---------------      ----- ------------  ---------------
    10      0.983528  1 C  dxx               15     -0.648302  1 C  dzz        
    13     -0.335226  1 C  dyy        
 
 Vector   19  Occ=0.000000D+00  E= 1.655870D+00  Symmetry=e
              MO Center=  1.7D-17,  7.0D-17, -3.7D-16, r^2= 6.1D-01
   Bfn.  Coefficient  Atom+Function         Bfn.  Coefficient  Atom+Function  
  ----- ------------  ---------------      ----- ------------  ---------------
    13      0.942138  1 C  dyy               15     -0.761383  1 C  dzz        
    10     -0.180754  1 C  dxx        
 
 Vector   20  Occ=0.000000D+00  E= 2.248027D+00  Symmetry=t2
              MO Center= -1.8D-02, -1.0D-02,  7.3D-02, r^2= 9.0D-01
   Bfn.  Coefficient  Atom+Function         Bfn.  Coefficient  Atom+Function  
  ----- ------------  ---------------      ----- ------------  ---------------
    12      1.691688  1 C  dxz               14      0.960743  1 C  dyz        
    18      0.707534  3 H  s                 16     -0.590060  2 H  s          
     8      0.373294  1 C  py                11     -0.240130  1 C  dxy        
    22     -0.237529  5 H  s                  7      0.212001  1 C  px         
     4      0.133384  1 C  py                20      0.120056  4 H  s          
 
 Vector   21  Occ=0.000000D+00  E= 2.248027D+00  Symmetry=t2
              MO Center=  2.0D-03,  3.7D-02,  4.5D-04, r^2= 9.0D-01
   Bfn.  Coefficient  Atom+Function         Bfn.  Coefficient  Atom+Function  
  ----- ------------  ---------------      ----- ------------  ---------------
    11      1.910700  1 C  dxy               16     -0.579921  2 H  s          
    22      0.568725  5 H  s                 14      0.437266  1 C  dyz        
     9      0.421622  1 C  pz                20      0.366007  4 H  s          
    18     -0.354811  3 H  s                  5      0.150653  1 C  pz         
     7      0.096489  1 C  px                17      0.064713  2 H  s          
 
 Vector   22  Occ=0.000000D+00  E= 2.248027D+00  Symmetry=t2
              MO Center=  1.6D-02, -2.7D-02, -7.3D-02, r^2= 9.0D-01
   Bfn.  Coefficient  Atom+Function         Bfn.  Coefficient  Atom+Function  
  ----- ------------  ---------------      ----- ------------  ---------------
    14      1.651747  1 C  dyz               12     -0.990034  1 C  dxz        
    20     -0.735753  4 H  s                 22      0.556631  5 H  s          
     7      0.364480  1 C  px                11     -0.366146  1 C  dxy        
    18      0.251419  3 H  s                  8     -0.218464  1 C  py         
     3      0.130235  1 C  px                21      0.082102  4 H  s          
 
 Vector   23  Occ=0.000000D+00  E= 4.181553D+00  Symmetry=a1
              MO Center= -1.5D-16,  1.2D-16, -2.0D-16, r^2= 7.8D-01
   Bfn.  Coefficient  Atom+Function         Bfn.  Coefficient  Atom+Function  
  ----- ------------  ---------------      ----- ------------  ---------------
     2      2.934670  1 C  s                  6      2.459564  1 C  s          
    10     -1.880686  1 C  dxx               13     -1.880686  1 C  dyy        
    15     -1.880686  1 C  dzz               17     -0.498299  2 H  s          
    19     -0.498299  3 H  s                 21     -0.498299  4 H  s          
    23     -0.498299  5 H  s                  1     -0.488481  1 C  s          
 

 center of mass
 --------------
 x =   0.00000000 y =   0.00000000 z =   0.00000000

 moments of inertia (a.u.)
 ------------------
          11.402624217693           0.000000000000           0.000000000000
           0.000000000000          11.402624217693           0.000000000000
           0.000000000000           0.000000000000          11.402624217693
 
     Multipole analysis of the density
     ---------------------------------
 
     L   x y z        total         alpha         beta         nuclear
     -   - - -        -----         -----         ----         -------
     0   0 0 0     -0.000000     -5.000000     -5.000000     10.000000
 
     1   1 0 0      0.000000      0.000000      0.000000      0.000000
     1   0 1 0      0.000000      0.000000      0.000000      0.000000
     1   0 0 1     -0.000000     -0.000000     -0.000000      0.000000
 
     2   2 0 0     -6.128162     -5.892604     -5.892604      5.657046
     2   1 1 0      0.000000      0.000000      0.000000      0.000000
     2   1 0 1      0.000000      0.000000      0.000000      0.000000
     2   0 2 0     -6.128162     -5.892604     -5.892604      5.657046
     2   0 1 1      0.000000      0.000000      0.000000      0.000000
     2   0 0 2     -6.128162     -5.892604     -5.892604      5.657046
 

 Parallel integral file used      19 records with       0 large values

 
            General Information
            -------------------
          SCF calculation type: DFT
          Wavefunction type:  closed shell.
          No. of atoms     :     5
          No. of electrons :    10
           Alpha electrons :     5
            Beta electrons :     5
          Charge           :     0
          Spin multiplicity:     1
          Use of symmetry is: on ; symmetry adaption is: on 
          Maximum number of iterations:  50
          AO basis - number of functions:    23
                     number of shells:    14
          Convergence on energy requested:  1.00D-06
          Convergence on density requested:  1.00D-05
          Convergence on gradient requested:  5.00D-04
 
              XC Information
              --------------
                         B3LYP Method XC Potential
                     Hartree-Fock (Exact) Exchange  0.200          
                        Slater Exchange Functional  0.800 local    
                    Becke 1988 Exchange Functional  0.720 non-local
              Lee-Yang-Parr Correlation Functional  0.810          
                  VWN I RPA Correlation Functional  0.190 local    
 
             Grid Information
             ----------------
          Grid used for XC integration:  xfine     
          Radial quadrature: Mura-Knowles        
          Angular quadrature: Lebedev. 
          Tag              B.-S. Rad. Rad. Pts. Rad. Cut. Ang. Pts.
          ---              ---------- --------- --------- ---------
          C                   0.70      100           6.0      1454
          H                   0.35      100           7.0      1202
          Grid pruning is: on 
          Number of quadrature shells:   200
          Spatial weights used:  Erf1
 
          Convergence Information
          -----------------------
          Convergence aids based upon iterative change in 
          total energy or number of iterations. 
          Levelshifting, if invoked, occurs when the 
          HOMO/LUMO gap drops below (HL_TOL):  1.00D-02
          DIIS, if invoked, will attempt to extrapolate 
          using up to (NFOCK): 10 stored Fock matrices.

                    Damping( 0%)  Levelshifting(0.5)       DIIS
                  --------------- ------------------- ---------------
          dE  on:    start            ASAP                start   
          dE off:    2 iters         50 iters            50 iters 

 
      Screening Tolerance Information
      -------------------------------
          Density screening/tol_rho:  1.00D-10
          AO Gaussian exp screening on grid/accAOfunc:  14
          CD Gaussian exp screening on grid/accCDfunc:  20
          XC Gaussian exp screening on grid/accXCfunc:  20
          Schwarz screening/accCoul:  1.00D-08

 
 
                            NWChem DFT Gradient Module
                            --------------------------
 
 
                          methane opt+freq (B3LYP/6-31g*)
 
 

  charge          =   0.00
  wavefunction    = closed shell

  Using symmetry


                         DFT ENERGY GRADIENTS

    atom               coordinates                        gradient
                 x          y          z           x          y          z
   1 C       0.000000   0.000000   0.000000    0.000000   0.000000   0.000000
   2 H       1.189227   1.189227   1.189227   -0.001277  -0.001277  -0.001277
   3 H      -1.189227  -1.189227   1.189227    0.001277   0.001277  -0.001277
   4 H       1.189227  -1.189227  -1.189227   -0.001277   0.001277   0.001277
   5 H      -1.189227   1.189227  -1.189227    0.001277  -0.001277   0.001277
 
                 ----------------------------------------
                 |  Time  |  1-e(secs)   |  2-e(secs)   |
                 ----------------------------------------
                 |  CPU   |       0.00   |       0.09   |
                 ----------------------------------------
                 |  WALL  |       0.00   |       0.11   |
                 ----------------------------------------
  no constraints, skipping   0.000000000000000E+000

@ Step       Energy      Delta E   Gmax     Grms     Xrms     Xmax   Walltime
@ ---- ---------------- -------- -------- -------- -------- -------- --------
@    0     -40.51835605  0.0D+00  0.00221  0.00140  0.00000  0.00000     14.2
                                                                    



                                Z-matrix (autoz)
                                -------- 

 Units are Angstrom for bonds and degrees for angles
 
      Type          Name      I     J     K     L     M      Value     Gradient
      ----------- --------  ----- ----- ----- ----- ----- ---------- ----------
    1 Stretch                  1     2                       1.09000   -0.00221
    2 Stretch                  1     3                       1.09000   -0.00221
    3 Stretch                  1     4                       1.09000   -0.00221
    4 Stretch                  1     5                       1.09000   -0.00221
    5 Bend                     2     1     3               109.47122   -0.00000
    6 Bend                     2     1     4               109.47122    0.00000
    7 Bend                     2     1     5               109.47122   -0.00000
    8 Bend                     3     1     4               109.47122    0.00000
    9 Bend                     3     1     5               109.47122   -0.00000
   10 Bend                     4     1     5               109.47122   -0.00000
 
  no constraints, skipping   0.000000000000000E+000
  no constraints, skipping   0.000000000000000E+000
  no constraints, skipping   0.000000000000000E+000
 
                                 NWChem DFT Module
                                 -----------------
 
 
                          methane opt+freq (B3LYP/6-31g*)
 
 


 Summary of "ao basis" -> "ao basis" (cartesian)
 ------------------------------------------------------------------------------
       Tag                 Description            Shells   Functions and Types
 ---------------- ------------------------------  ------  ---------------------
 C                           6-31g*                  6       15   3s2p1d
 H                           6-31g*                  2        2   2s


      Symmetry analysis of basis
      --------------------------
 
        a1          6
        a2          0
        e           2
        t1          0
        t2         15
 
  Caching 1-el integrals 
 
            General Information
            -------------------
          SCF calculation type: DFT
          Wavefunction type:  closed shell.
          No. of atoms     :     5
          No. of electrons :    10
           Alpha electrons :     5
            Beta electrons :     5
          Charge           :     0
          Spin multiplicity:     1
          Use of symmetry is: on ; symmetry adaption is: on 
          Maximum number of iterations:  50
          AO basis - number of functions:    23
                     number of shells:    14
          Convergence on energy requested:  1.00D-06
          Convergence on density requested:  1.00D-05
          Convergence on gradient requested:  5.00D-04
 
              XC Information
              --------------
                         B3LYP Method XC Potential
                     Hartree-Fock (Exact) Exchange  0.200          
                        Slater Exchange Functional  0.800 local    
                    Becke 1988 Exchange Functional  0.720 non-local
              Lee-Yang-Parr Correlation Functional  0.810          
                  VWN I RPA Correlation Functional  0.190 local    
 
             Grid Information
             ----------------
          Grid used for XC integration:  xfine     
          Radial quadrature: Mura-Knowles        
          Angular quadrature: Lebedev. 
          Tag              B.-S. Rad. Rad. Pts. Rad. Cut. Ang. Pts.
          ---              ---------- --------- --------- ---------
          C                   0.70      100           6.0      1454
          H                   0.35      100           7.0      1202
          Grid pruning is: on 
          Number of quadrature shells:   200
          Spatial weights used:  Erf1
 
          Convergence Information
          -----------------------
          Convergence aids based upon iterative change in 
          total energy or number of iterations. 
          Levelshifting, if invoked, occurs when the 
          HOMO/LUMO gap drops below (HL_TOL):  1.00D-02
          DIIS, if invoked, will attempt to extrapolate 
          using up to (NFOCK): 10 stored Fock matrices.

                    Damping( 0%)  Levelshifting(0.5)       DIIS
                  --------------- ------------------- ---------------
          dE  on:    start            ASAP                start   
          dE off:    2 iters         50 iters            50 iters 

 
      Screening Tolerance Information
      -------------------------------
          Density screening/tol_rho:  1.00D-10
          AO Gaussian exp screening on grid/accAOfunc:  14
          CD Gaussian exp screening on grid/accCDfunc:  20
          XC Gaussian exp screening on grid/accXCfunc:  20
          Schwarz screening/accCoul:  1.00D-08


 Loading old vectors from job with title :

methane opt+freq (B3LYP/6-31g*)

 
      Symmetry analysis of molecular orbitals - initial
      -------------------------------------------------
 
  Numbering of irreducible representations: 
 
     1 a1          2 a2          3 e           4 t1          5 t2      
 
  Orbital symmetries:
 
     1 a1          2 a1          3 t2          4 t2          5 t2      
     6 a1          7 t2          8 t2          9 t2         10 t2      
    11 t2         12 t2         13 t2         14 t2         15 t2      
 
   Time after variat. SCF:     14.3
   Time prior to 1st pass:     14.3

 #quartets = 1.101D+03 #integrals = 8.767D+03 #direct =  0.0% #cached =100.0%


 Integral file          = ./methane.aoints.00
 Record size in doubles =  65536        No. of integs per rec  =  43688
 Max. records in memory =      3        Max. records in file   = 224872
 No. of bits per label  =      8        No. of bits per value  =     64


File balance: exchanges=     0  moved=     0  time=   0.0


 Grid_pts file          = ./methane.gridpts.00
 Record size in doubles =  12289        No. of grid_pts per rec  =   3070
 Max. records in memory =      7        Max. recs in file   =   1199223


           Memory utilization after 1st SCF pass: 
           Heap Space remaining (MW):       25.93            25929682
          Stack Space remaining (MW):       26.21            26214108

   convergence    iter        energy       DeltaE   RMS-Dens  Diis-err    time
 ---------------- ----- ----------------- --------- --------- ---------  ------
 d= 0,ls=0.0,diis     1    -40.5183775046 -5.39D+01  3.00D-04  3.74D-05    15.7
 d= 0,ls=0.0,diis     2    -40.5183785101 -1.01D-06  1.59D-04  3.72D-05    19.1
 d= 0,ls=0.0,diis     3    -40.5183832257 -4.72D-06  1.09D-05  2.91D-07    19.1
 d= 0,ls=0.0,diis     4    -40.5183832606 -3.48D-08  5.42D-07  2.47D-10    19.3


         Total DFT energy =      -40.518383260562
      One electron energy =      -79.758780059792
           Coulomb energy =       32.747066237528
    Exchange-Corr. energy =       -6.901805384304
 Nuclear repulsion energy =       13.395135946006

 Numeric. integr. density =        9.999999992124

     Total iterative time =      5.0s


 
                  Occupations of the irreducible representations
                  ----------------------------------------------
 
                     irrep           alpha         beta
                     --------     --------     --------
                     a1                2.0          2.0
                     a2                0.0          0.0
                     e                 0.0          0.0
                     t1                0.0          0.0
                     t2                3.0          3.0
 
 
                       DFT Final Molecular Orbital Analysis
                       ------------------------------------
 
 Vector    1  Occ=2.000000D+00  E=-1.016695D+01  Symmetry=a1
              MO Center=  2.0D-21,  3.1D-21, -2.6D-22, r^2= 2.8D-02
   Bfn.  Coefficient  Atom+Function         Bfn.  Coefficient  Atom+Function  
  ----- ------------  ---------------      ----- ------------  ---------------
     1      0.992806  1 C  s                  2      0.049764  1 C  s          
 
 Vector    2  Occ=2.000000D+00  E=-6.902956D-01  Symmetry=a1
              MO Center= -2.2D-18, -5.8D-18, -2.2D-18, r^2= 1.0D+00
   Bfn.  Coefficient  Atom+Function         Bfn.  Coefficient  Atom+Function  
  ----- ------------  ---------------      ----- ------------  ---------------
     2      0.380199  1 C  s                  6      0.361868  1 C  s          
     1     -0.198457  1 C  s                 16      0.134697  2 H  s          
    18      0.134697  3 H  s                 20      0.134697  4 H  s          
    22      0.134697  5 H  s                 17      0.038627  2 H  s          
    19      0.038627  3 H  s                 21      0.038627  4 H  s          
 
 Vector    3  Occ=2.000000D+00  E=-3.890637D-01  Symmetry=t2
              MO Center= -3.0D-01, -1.3D-03,  1.3D-03, r^2= 1.2D+00
   Bfn.  Coefficient  Atom+Function         Bfn.  Coefficient  Atom+Function  
  ----- ------------  ---------------      ----- ------------  ---------------
     4      0.322957  1 C  py                 5     -0.308004  1 C  pz         
    18     -0.240080  3 H  s                 22      0.239048  5 H  s          
    19     -0.202698  3 H  s                 23      0.201826  5 H  s          
     8      0.155358  1 C  py                 9     -0.148165  1 C  pz         
    12      0.032105  1 C  dxz               11     -0.030619  1 C  dxy        
 
 Vector    4  Occ=2.000000D+00  E=-3.890637D-01  Symmetry=t2
              MO Center=  7.4D-03,  6.9D-02,  6.4D-02, r^2= 1.3D+00
   Bfn.  Coefficient  Atom+Function         Bfn.  Coefficient  Atom+Function  
  ----- ------------  ---------------      ----- ------------  ---------------
     3      0.440793  1 C  px                 7      0.212042  1 C  px         
    16      0.204803  2 H  s                 17      0.172914  2 H  s          
    22     -0.168969  5 H  s                 18     -0.165752  3 H  s          
    23     -0.142660  5 H  s                 19     -0.139943  3 H  s          
    20      0.129918  4 H  s                 21      0.109689  4 H  s          
 
 Vector    5  Occ=2.000000D+00  E=-3.890637D-01  Symmetry=t2
              MO Center=  3.0D-01, -6.8D-02, -6.5D-02, r^2= 1.2D+00
   Bfn.  Coefficient  Atom+Function         Bfn.  Coefficient  Atom+Function  
  ----- ------------  ---------------      ----- ------------  ---------------
     5      0.318839  1 C  pz                 4      0.304371  1 C  py         
    20     -0.263116  4 H  s                 21     -0.222147  4 H  s          
    16      0.210126  2 H  s                 17      0.177408  2 H  s          
     9      0.153377  1 C  pz                 8      0.146417  1 C  py         
     3     -0.069783  1 C  px                 7     -0.033569  1 C  px         
 
 Vector    6  Occ=0.000000D+00  E= 1.179158D-01  Symmetry=a1
              MO Center=  2.4D-14,  1.2D-14, -3.4D-14, r^2= 3.7D+00
   Bfn.  Coefficient  Atom+Function         Bfn.  Coefficient  Atom+Function  
  ----- ------------  ---------------      ----- ------------  ---------------
     6      2.607303  1 C  s                 17     -0.991376  2 H  s          
    19     -0.991376  3 H  s                 21     -0.991376  4 H  s          
    23     -0.991376  5 H  s                  2      0.196174  1 C  s          
     1     -0.162941  1 C  s          
 
 Vector    7  Occ=0.000000D+00  E= 1.765380D-01  Symmetry=t2
              MO Center=  3.4D-02, -4.1D-01, -7.8D-02, r^2= 2.9D+00
   Bfn.  Coefficient  Atom+Function         Bfn.  Coefficient  Atom+Function  
  ----- ------------  ---------------      ----- ------------  ---------------
    21      1.503369  4 H  s                 19     -1.337638  3 H  s          
     7     -1.239149  1 C  px                23     -0.632659  5 H  s          
     9      0.547602  1 C  pz                17      0.466928  2 H  s          
     3     -0.350506  1 C  px                 5      0.154895  1 C  pz         
     8      0.104230  1 C  py                20      0.102164  4 H  s          
 
 Vector    8  Occ=0.000000D+00  E= 1.765380D-01  Symmetry=t2
              MO Center=  2.7D-01,  4.0D-01,  1.3D-01, r^2= 2.9D+00
   Bfn.  Coefficient  Atom+Function         Bfn.  Coefficient  Atom+Function  
  ----- ------------  ---------------      ----- ------------  ---------------
    17      1.682040  2 H  s                  9     -1.180778  1 C  pz         
    23     -1.076109  5 H  s                 21     -0.801377  4 H  s          
     7     -0.553862  1 C  px                 8     -0.381079  1 C  py         
     5     -0.333996  1 C  pz                19      0.195446  3 H  s          
     3     -0.156666  1 C  px                16      0.114305  2 H  s          
 
 Vector    9  Occ=0.000000D+00  E= 1.765380D-01  Symmetry=t2
              MO Center= -3.1D-01,  1.5D-02, -5.0D-02, r^2= 3.0D+00
   Bfn.  Coefficient  Atom+Function         Bfn.  Coefficient  Atom+Function  
  ----- ------------  ---------------      ----- ------------  ---------------
    23     -1.393731  5 H  s                  8      1.300052  1 C  py         
    19      1.293553  3 H  s                 21      0.773584  4 H  s          
    17     -0.673405  2 H  s                  9     -0.390020  1 C  pz         
     4      0.367733  1 C  py                 5     -0.110321  1 C  pz         
    22     -0.094713  5 H  s                 18      0.087905  3 H  s          
 
 Vector   10  Occ=0.000000D+00  E= 5.332565D-01  Symmetry=t2
              MO Center= -1.0D-01, -4.3D-02, -1.3D-02, r^2= 2.1D+00
   Bfn.  Coefficient  Atom+Function         Bfn.  Coefficient  Atom+Function  
  ----- ------------  ---------------      ----- ------------  ---------------
     9      1.380668  1 C  pz                 5     -0.726214  1 C  pz         
     8      0.417976  1 C  py                16     -0.388119  2 H  s          
    20      0.318670  4 H  s                 22      0.223872  5 H  s          
     4     -0.219850  1 C  py                 7      0.176732  1 C  px         
    17     -0.177063  2 H  s                 11     -0.167667  1 C  dxy        
 
 Vector   11  Occ=0.000000D+00  E= 5.332565D-01  Symmetry=t2
              MO Center=  2.7D-02, -2.9D-02,  1.8D-01, r^2= 2.1D+00
   Bfn.  Coefficient  Atom+Function         Bfn.  Coefficient  Atom+Function  
  ----- ------------  ---------------      ----- ------------  ---------------
     7      1.073030  1 C  px                 8     -0.967766  1 C  py         
     3     -0.564401  1 C  px                 4      0.509033  1 C  py         
    22      0.431549  5 H  s                 20     -0.370396  4 H  s          
    23      0.196876  5 H  s                 21     -0.168977  4 H  s          
     9      0.155623  1 C  pz                14     -0.130308  1 C  dyz        
 
 Vector   12  Occ=0.000000D+00  E= 5.332565D-01  Symmetry=t2
              MO Center=  7.5D-02,  7.2D-02, -1.7D-01, r^2= 2.1D+00
   Bfn.  Coefficient  Atom+Function         Bfn.  Coefficient  Atom+Function  
  ----- ------------  ---------------      ----- ------------  ---------------
     8      1.000454  1 C  py                 7      0.964134  1 C  px         
     4     -0.526227  1 C  py                 3     -0.507122  1 C  px         
    18      0.469755  3 H  s                  9     -0.426286  1 C  pz         
    16     -0.302243  2 H  s                  5      0.224221  1 C  pz         
    19      0.214306  3 H  s                 17     -0.137886  2 H  s          
 
 Vector   13  Occ=0.000000D+00  E= 8.977198D-01  Symmetry=t2
              MO Center= -2.5D-03, -4.9D-02,  4.8D-02, r^2= 2.2D+00
   Bfn.  Coefficient  Atom+Function         Bfn.  Coefficient  Atom+Function  
  ----- ------------  ---------------      ----- ------------  ---------------
     7      1.219966  1 C  px                19      1.084453  3 H  s          
    17     -0.981706  2 H  s                 21     -0.984629  4 H  s          
    23      0.881882  5 H  s                  3     -0.848416  1 C  px         
    18     -0.564518  3 H  s                 16      0.511033  2 H  s          
    20      0.512554  4 H  s                 22     -0.459069  5 H  s          
 
 Vector   14  Occ=0.000000D+00  E= 8.977198D-01  Symmetry=t2
              MO Center= -4.1D-01,  5.8D-02, -3.4D-02, r^2= 2.0D+00
   Bfn.  Coefficient  Atom+Function         Bfn.  Coefficient  Atom+Function  
  ----- ------------  ---------------      ----- ------------  ---------------
    23      1.414954  5 H  s                 19     -1.275829  3 H  s          
     9      1.052963  1 C  pz                22     -0.736562  5 H  s          
     5     -0.732275  1 C  pz                18      0.664140  3 H  s          
     8     -0.616470  1 C  py                 4      0.428719  1 C  py         
    17     -0.421331  2 H  s                 11      0.304345  1 C  dxy        
 
 Vector   15  Occ=0.000000D+00  E= 8.977198D-01  Symmetry=t2
              MO Center=  4.2D-01, -8.3D-03, -1.4D-02, r^2= 2.0D+00
   Bfn.  Coefficient  Atom+Function         Bfn.  Coefficient  Atom+Function  
  ----- ------------  ---------------      ----- ------------  ---------------
    21     -1.366057  4 H  s                 17      1.331908  2 H  s          
     8     -1.054678  1 C  py                 4      0.733468  1 C  py         
    20      0.711109  4 H  s                 16     -0.693333  2 H  s          
     9     -0.619211  1 C  pz                 5      0.430625  1 C  pz         
    23      0.368016  5 H  s                 19     -0.333867  3 H  s          
 
 Vector   16  Occ=0.000000D+00  E= 9.474576D-01  Symmetry=a1
              MO Center= -5.5D-15,  8.2D-15,  5.4D-15, r^2= 1.9D+00
   Bfn.  Coefficient  Atom+Function         Bfn.  Coefficient  Atom+Function  
  ----- ------------  ---------------      ----- ------------  ---------------
     6      1.106434  1 C  s                  2     -0.804472  1 C  s          
    16      0.651174  2 H  s                 18      0.651174  3 H  s          
    20      0.651174  4 H  s                 22      0.651174  5 H  s          
    17     -0.539895  2 H  s                 19     -0.539895  3 H  s          
    21     -0.539895  4 H  s                 23     -0.539895  5 H  s          
 
 Vector   17  Occ=0.000000D+00  E= 1.099849D+00  Symmetry=a1
              MO Center= -4.0D-15,  9.2D-15,  4.9D-15, r^2= 2.3D+00
   Bfn.  Coefficient  Atom+Function         Bfn.  Coefficient  Atom+Function  
  ----- ------------  ---------------      ----- ------------  ---------------
     6      5.449895  1 C  s                  2     -2.059352  1 C  s          
    17     -1.034255  2 H  s                 19     -1.034255  3 H  s          
    21     -1.034255  4 H  s                 23     -1.034255  5 H  s          
    16     -0.290462  2 H  s                 18     -0.290462  3 H  s          
    20     -0.290462  4 H  s                 22     -0.290462  5 H  s          
 
 Vector   18  Occ=0.000000D+00  E= 1.656519D+00  Symmetry=e
              MO Center=  8.5D-18,  1.6D-16, -2.1D-17, r^2= 6.1D-01
   Bfn.  Coefficient  Atom+Function         Bfn.  Coefficient  Atom+Function  
  ----- ------------  ---------------      ----- ------------  ---------------
    13      0.907526  1 C  dyy               15     -0.817490  1 C  dzz        
    10     -0.090036  1 C  dxx        
 
 Vector   19  Occ=0.000000D+00  E= 1.656519D+00  Symmetry=e
              MO Center=  8.8D-17,  1.1D-16,  2.1D-17, r^2= 6.1D-01
   Bfn.  Coefficient  Atom+Function         Bfn.  Coefficient  Atom+Function  
  ----- ------------  ---------------      ----- ------------  ---------------
    10      0.995939  1 C  dxx               15     -0.575943  1 C  dzz        
    13     -0.419996  1 C  dyy        
 
 Vector   20  Occ=0.000000D+00  E= 2.243607D+00  Symmetry=t2
              MO Center= -7.5D-02, -3.8D-03,  6.6D-03, r^2= 9.0D-01
   Bfn.  Coefficient  Atom+Function         Bfn.  Coefficient  Atom+Function  
  ----- ------------  ---------------      ----- ------------  ---------------
    12      1.690075  1 C  dxz               11     -0.982394  1 C  dxy        
    18      0.671747  3 H  s                 22     -0.629501  5 H  s          
     8      0.373073  1 C  py                 9     -0.216857  1 C  pz         
    16     -0.193411  2 H  s                 20      0.151165  4 H  s          
     4      0.129349  1 C  py                14      0.086764  1 C  dyz        
 
 Vector   21  Occ=0.000000D+00  E= 2.243607D+00  Symmetry=t2
              MO Center=  1.9D-02,  7.0D-02,  3.4D-02, r^2= 9.0D-01
   Bfn.  Coefficient  Atom+Function         Bfn.  Coefficient  Atom+Function  
  ----- ------------  ---------------      ----- ------------  ---------------
    14      1.653509  1 C  dyz               11      0.939294  1 C  dxy        
    16     -0.743486  2 H  s                 22      0.518972  5 H  s          
    12      0.461100  1 C  dxz                7      0.365002  1 C  px         
    18      0.286135  3 H  s                  9      0.207343  1 C  pz         
     3      0.126551  1 C  px                 8      0.101785  1 C  py         
 
 Vector   22  Occ=0.000000D+00  E= 2.243607D+00  Symmetry=t2
              MO Center=  5.5D-02, -6.6D-02, -4.1D-02, r^2= 9.0D-01
   Bfn.  Coefficient  Atom+Function         Bfn.  Coefficient  Atom+Function  
  ----- ------------  ---------------      ----- ------------  ---------------
    11      1.407696  1 C  dxy               14     -1.042765  1 C  dyz        
    12      0.871788  1 C  dxz               20      0.808815  4 H  s          
    18     -0.384335  3 H  s                  9      0.310740  1 C  pz         
    16     -0.301084  2 H  s                  7     -0.230184  1 C  px         
     8      0.192442  1 C  py                22     -0.123397  5 H  s          
 
 Vector   23  Occ=0.000000D+00  E= 4.179163D+00  Symmetry=a1
              MO Center=  1.1D-16,  1.8D-16,  1.6D-16, r^2= 7.8D-01
   Bfn.  Coefficient  Atom+Function         Bfn.  Coefficient  Atom+Function  
  ----- ------------  ---------------      ----- ------------  ---------------
     2      2.935739  1 C  s                  6      2.448089  1 C  s          
    10     -1.879652  1 C  dxx               13     -1.879652  1 C  dyy        
    15     -1.879652  1 C  dzz               17     -0.495312  2 H  s          
    19     -0.495312  3 H  s                 21     -0.495312  4 H  s          
    23     -0.495312  5 H  s                  1     -0.488237  1 C  s          
 

 center of mass
 --------------
 x =   0.00000000 y =   0.00000000 z =   0.00000000

 moments of inertia (a.u.)
 ------------------
          11.471252654482           0.000000000000           0.000000000000
           0.000000000000          11.471252654482           0.000000000000
           0.000000000000           0.000000000000          11.471252654482
 
     Multipole analysis of the density
     ---------------------------------
 
     L   x y z        total         alpha         beta         nuclear
     -   - - -        -----         -----         ----         -------
     0   0 0 0     -0.000000     -5.000000     -5.000000     10.000000
 
     1   1 0 0      0.000000      0.000000      0.000000      0.000000
     1   0 1 0     -0.000000     -0.000000     -0.000000      0.000000
     1   0 0 1      0.000000      0.000000      0.000000      0.000000
 
     2   2 0 0     -6.134728     -5.912911     -5.912911      5.691094
     2   1 1 0      0.000000      0.000000      0.000000      0.000000
     2   1 0 1     -0.000000     -0.000000     -0.000000      0.000000
     2   0 2 0     -6.134728     -5.912911     -5.912911      5.691094
     2   0 1 1      0.000000      0.000000      0.000000      0.000000
     2   0 0 2     -6.134728     -5.912911     -5.912911      5.691094
 

 Parallel integral file used      19 records with       0 large values

 Line search: 
     step= 1.00 grad=-5.5D-05 hess= 2.8D-05 energy=    -40.518383 mode=accept  
 new step= 1.00                   predicted energy=    -40.518383
  no constraints, skipping   0.000000000000000E+000
  no constraints, skipping   0.000000000000000E+000
  no constraints, skipping   0.000000000000000E+000

          --------
          Step   1
          --------
 
 
                         Geometry "geometry" -> "geometry"
                         ---------------------------------
 
 Output coordinates in angstroms (scale by  1.889725989 to convert to a.u.)
 
  No.       Tag          Charge          X              Y              Z
 ---- ---------------- ---------- -------------- -------------- --------------
    1 C                    6.0000     0.00000000     0.00000000     0.00000000
    2 H                    1.0000     0.63120296     0.63120296     0.63120296
    3 H                    1.0000    -0.63120296    -0.63120296     0.63120296
    4 H                    1.0000     0.63120296    -0.63120296    -0.63120296
    5 H                    1.0000    -0.63120296     0.63120296    -0.63120296
 
      Atomic Mass 
      ----------- 
 
      C                 12.000000
      H                  1.007825
 

 Effective nuclear repulsion energy (a.u.)      13.3951359460

            Nuclear Dipole moment (a.u.) 
            ----------------------------
        X                 Y               Z
 ---------------- ---------------- ----------------
     0.0000000000     0.0000000000     0.0000000000
 
      Symmetry information
      --------------------
 
 Group name              Td       
 Group number             42
 Group order              24
 No. of unique centers     2
 
      Symmetry unique atoms
 
     1    2
 
 
                                 NWChem DFT Module
                                 -----------------
 
 
                          methane opt+freq (B3LYP/6-31g*)
 
 


 Summary of "ao basis" -> "ao basis" (cartesian)
 ------------------------------------------------------------------------------
       Tag                 Description            Shells   Functions and Types
 ---------------- ------------------------------  ------  ---------------------
 C                           6-31g*                  6       15   3s2p1d
 H                           6-31g*                  2        2   2s


      Symmetry analysis of basis
      --------------------------
 
        a1          6
        a2          0
        e           2
        t1          0
        t2         15
 

  The DFT is already converged 

         Total DFT energy =    -40.518383260562

 
            General Information
            -------------------
          SCF calculation type: DFT
          Wavefunction type:  closed shell.
          No. of atoms     :     5
          No. of electrons :    10
           Alpha electrons :     5
            Beta electrons :     5
          Charge           :     0
          Spin multiplicity:     1
          Use of symmetry is: on ; symmetry adaption is: on 
          Maximum number of iterations:  50
          AO basis - number of functions:    23
                     number of shells:    14
          Convergence on energy requested:  1.00D-06
          Convergence on density requested:  1.00D-05
          Convergence on gradient requested:  5.00D-04
 
              XC Information
              --------------
                         B3LYP Method XC Potential
                     Hartree-Fock (Exact) Exchange  0.200          
                        Slater Exchange Functional  0.800 local    
                    Becke 1988 Exchange Functional  0.720 non-local
              Lee-Yang-Parr Correlation Functional  0.810          
                  VWN I RPA Correlation Functional  0.190 local    
 
             Grid Information
             ----------------
          Grid used for XC integration:  xfine     
          Radial quadrature: Mura-Knowles        
          Angular quadrature: Lebedev. 
          Tag              B.-S. Rad. Rad. Pts. Rad. Cut. Ang. Pts.
          ---              ---------- --------- --------- ---------
          C                   0.70      100           6.0      1454
          H                   0.35      100           7.0      1202
          Grid pruning is: on 
          Number of quadrature shells:   200
          Spatial weights used:  Erf1
 
          Convergence Information
          -----------------------
          Convergence aids based upon iterative change in 
          total energy or number of iterations. 
          Levelshifting, if invoked, occurs when the 
          HOMO/LUMO gap drops below (HL_TOL):  1.00D-02
          DIIS, if invoked, will attempt to extrapolate 
          using up to (NFOCK): 10 stored Fock matrices.

                    Damping( 0%)  Levelshifting(0.5)       DIIS
                  --------------- ------------------- ---------------
          dE  on:    start            ASAP                start   
          dE off:    2 iters         50 iters            50 iters 

 
      Screening Tolerance Information
      -------------------------------
          Density screening/tol_rho:  1.00D-10
          AO Gaussian exp screening on grid/accAOfunc:  14
          CD Gaussian exp screening on grid/accCDfunc:  20
          XC Gaussian exp screening on grid/accXCfunc:  20
          Schwarz screening/accCoul:  1.00D-08

 
 
                            NWChem DFT Gradient Module
                            --------------------------
 
 
                          methane opt+freq (B3LYP/6-31g*)
 
 

  charge          =   0.00
  wavefunction    = closed shell

  Using symmetry


                         DFT ENERGY GRADIENTS

    atom               coordinates                        gradient
                 x          y          z           x          y          z
   1 C       0.000000   0.000000   0.000000    0.000000   0.000000   0.000000
   2 H       1.192801   1.192801   1.192801    0.000005   0.000005   0.000005
   3 H      -1.192801  -1.192801   1.192801   -0.000005  -0.000005   0.000005
   4 H       1.192801  -1.192801  -1.192801    0.000005  -0.000005  -0.000005
   5 H      -1.192801   1.192801  -1.192801   -0.000005   0.000005  -0.000005
 
                 ----------------------------------------
                 |  Time  |  1-e(secs)   |  2-e(secs)   |
                 ----------------------------------------
                 |  CPU   |       0.00   |       0.00   |
                 ----------------------------------------
                 |  WALL  |       0.00   |       0.00   |
                 ----------------------------------------
  no constraints, skipping   0.000000000000000E+000

  Step       Energy      Delta E   Gmax     Grms     Xrms     Xmax   Walltime
  ---- ---------------- -------- -------- -------- -------- -------- --------
@    1     -40.51838326 -2.7D-05  0.00001  0.00001  0.00320  0.00357     22.1
                                     ok       ok                    



                                Z-matrix (autoz)
                                -------- 

 Units are Angstrom for bonds and degrees for angles
 
      Type          Name      I     J     K     L     M      Value     Gradient
      ----------- --------  ----- ----- ----- ----- ----- ---------- ----------
    1 Stretch                  1     2                       1.09328    0.00001
    2 Stretch                  1     3                       1.09328    0.00001
    3 Stretch                  1     4                       1.09328    0.00001
    4 Stretch                  1     5                       1.09328    0.00001
    5 Bend                     2     1     3               109.47122    0.00000
    6 Bend                     2     1     4               109.47122    0.00000
    7 Bend                     2     1     5               109.47122    0.00000
    8 Bend                     3     1     4               109.47122    0.00000
    9 Bend                     3     1     5               109.47122   -0.00000
   10 Bend                     4     1     5               109.47122   -0.00000
 
  no constraints, skipping   0.000000000000000E+000
  no constraints, skipping   0.000000000000000E+000
  no constraints, skipping   0.000000000000000E+000
 
                                 NWChem DFT Module
                                 -----------------
 
 
                          methane opt+freq (B3LYP/6-31g*)
 
 


 Summary of "ao basis" -> "ao basis" (cartesian)
 ------------------------------------------------------------------------------
       Tag                 Description            Shells   Functions and Types
 ---------------- ------------------------------  ------  ---------------------
 C                           6-31g*                  6       15   3s2p1d
 H                           6-31g*                  2        2   2s


      Symmetry analysis of basis
      --------------------------
 
        a1          6
        a2          0
        e           2
        t1          0
        t2         15
 
  Caching 1-el integrals 
 
            General Information
            -------------------
          SCF calculation type: DFT
          Wavefunction type:  closed shell.
          No. of atoms     :     5
          No. of electrons :    10
           Alpha electrons :     5
            Beta electrons :     5
          Charge           :     0
          Spin multiplicity:     1
          Use of symmetry is: on ; symmetry adaption is: on 
          Maximum number of iterations:  50
          AO basis - number of functions:    23
                     number of shells:    14
          Convergence on energy requested:  1.00D-06
          Convergence on density requested:  1.00D-05
          Convergence on gradient requested:  5.00D-04
 
              XC Information
              --------------
                         B3LYP Method XC Potential
                     Hartree-Fock (Exact) Exchange  0.200          
                        Slater Exchange Functional  0.800 local    
                    Becke 1988 Exchange Functional  0.720 non-local
              Lee-Yang-Parr Correlation Functional  0.810          
                  VWN I RPA Correlation Functional  0.190 local    
 
             Grid Information
             ----------------
          Grid used for XC integration:  xfine     
          Radial quadrature: Mura-Knowles        
          Angular quadrature: Lebedev. 
          Tag              B.-S. Rad. Rad. Pts. Rad. Cut. Ang. Pts.
          ---              ---------- --------- --------- ---------
          C                   0.70      100           6.0      1454
          H                   0.35      100           7.0      1202
          Grid pruning is: on 
          Number of quadrature shells:   200
          Spatial weights used:  Erf1
 
          Convergence Information
          -----------------------
          Convergence aids based upon iterative change in 
          total energy or number of iterations. 
          Levelshifting, if invoked, occurs when the 
          HOMO/LUMO gap drops below (HL_TOL):  1.00D-02
          DIIS, if invoked, will attempt to extrapolate 
          using up to (NFOCK): 10 stored Fock matrices.

                    Damping( 0%)  Levelshifting(0.5)       DIIS
                  --------------- ------------------- ---------------
          dE  on:    start            ASAP                start   
          dE off:    2 iters         50 iters            50 iters 

 
      Screening Tolerance Information
      -------------------------------
          Density screening/tol_rho:  1.00D-10
          AO Gaussian exp screening on grid/accAOfunc:  14
          CD Gaussian exp screening on grid/accCDfunc:  20
          XC Gaussian exp screening on grid/accXCfunc:  20
          Schwarz screening/accCoul:  1.00D-08


 Loading old vectors from job with title :

methane opt+freq (B3LYP/6-31g*)

 
      Symmetry analysis of molecular orbitals - initial
      -------------------------------------------------
 
  Numbering of irreducible representations: 
 
     1 a1          2 a2          3 e           4 t1          5 t2      
 
  Orbital symmetries:
 
     1 a1          2 a1          3 t2          4 t2          5 t2      
     6 a1          7 t2          8 t2          9 t2         10 t2      
    11 t2         12 t2         13 t2         14 t2         15 t2      
 
   Time after variat. SCF:     22.2
   Time prior to 1st pass:     22.2

 #quartets = 1.101D+03 #integrals = 8.767D+03 #direct =  0.0% #cached =100.0%


 Integral file          = ./methane.aoints.00
 Record size in doubles =  65536        No. of integs per rec  =  43688
 Max. records in memory =      3        Max. records in file   = 224872
 No. of bits per label  =      8        No. of bits per value  =     64


File balance: exchanges=     0  moved=     0  time=   0.0


 Grid_pts file          = ./methane.gridpts.00
 Record size in doubles =  12289        No. of grid_pts per rec  =   3070
 Max. records in memory =      7        Max. recs in file   =   1199223


           Memory utilization after 1st SCF pass: 
           Heap Space remaining (MW):       25.93            25929682
          Stack Space remaining (MW):       26.21            26214108

   convergence    iter        energy       DeltaE   RMS-Dens  Diis-err    time
 ---------------- ----- ----------------- --------- --------- ---------  ------
 d= 0,ls=0.0,diis     1    -40.5183832609 -5.39D+01  1.13D-06  5.30D-10    23.6
 d= 0,ls=0.0,diis     2    -40.5183832609 -1.14D-11  6.03D-07  5.44D-10    23.6


         Total DFT energy =      -40.518383260899
      One electron energy =      -79.759067967409
           Coulomb energy =       32.747226038922
    Exchange-Corr. energy =       -6.901823604835
 Nuclear repulsion energy =       13.395282272424

 Numeric. integr. density =        9.999999992119

     Total iterative time =      1.5s


 
                  Occupations of the irreducible representations
                  ----------------------------------------------
 
                     irrep           alpha         beta
                     --------     --------     --------
                     a1                2.0          2.0
                     a2                0.0          0.0
                     e                 0.0          0.0
                     t1                0.0          0.0
                     t2                3.0          3.0
 
 
                       DFT Final Molecular Orbital Analysis
                       ------------------------------------
 
 Vector    1  Occ=2.000000D+00  E=-1.016694D+01  Symmetry=a1
              MO Center= -7.1D-22, -9.9D-22,  4.2D-22, r^2= 2.8D-02
   Bfn.  Coefficient  Atom+Function         Bfn.  Coefficient  Atom+Function  
  ----- ------------  ---------------      ----- ------------  ---------------
     1      0.992806  1 C  s                  2      0.049764  1 C  s          
 
 Vector    2  Occ=2.000000D+00  E=-6.902994D-01  Symmetry=a1
              MO Center=  2.3D-16,  3.2D-17,  2.9D-17, r^2= 1.0D+00
   Bfn.  Coefficient  Atom+Function         Bfn.  Coefficient  Atom+Function  
[...]
           5    -0.44513    -0.09499     0.04034    -0.16452     0.37190     0.28755
           6     0.12414     0.39984    -0.18306     0.40433    -0.04347     0.28755
           7     0.43597     0.03956     0.13100     0.23981     0.32842    -0.28755
           8    -0.30878     0.28957     0.17204     0.16452    -0.37190    -0.28755
           9     0.09331     0.21345     0.39310     0.40433    -0.04347     0.28755
          10     0.13354     0.04272     0.43490    -0.23981    -0.32842     0.28755
          11    -0.17353    -0.28454     0.31260     0.16452    -0.37190    -0.28755
          12     0.39574     0.21030     0.08920    -0.40433     0.04347    -0.28755
          13    -0.00281    -0.34184     0.30320     0.23981     0.32842    -0.28755
          14    -0.03717     0.10003     0.44430    -0.16452     0.37190     0.28755
          15    -0.17829     0.40300     0.12083    -0.40433     0.04347    -0.28755

                   13          14          15
 
 Frequency       3163.28     3163.28     3163.28
 
           1    -0.05589     0.03859    -0.05614
           2     0.06201    -0.00124    -0.06259
           3    -0.02820    -0.07921    -0.02637
           4     0.05913     0.14024     0.44920
           5     0.08204     0.13251     0.44795
           6     0.06451     0.11736     0.45499
           7    -0.11970    -0.36210     0.28197
           8    -0.09679    -0.36983     0.28071
           9     0.10336     0.35421    -0.29800
          10     0.27360    -0.36997    -0.11496
          11    -0.27241     0.37722     0.09189
          12    -0.28993     0.36207     0.09893
          13     0.45243     0.13237     0.05228
          14    -0.45124    -0.12512    -0.07534
          15     0.45781     0.10949     0.05806



 ----------------------------------------------------------------------------
 Normal Eigenvalue ||         Derivative Dipole Moments (debye/angs)
  Mode   [cm**-1]  ||      [d/dqX]             [d/dqY]           [d/dqZ]
 ------ ---------- || ------------------ ------------------ -----------------
    1       -0.314 ||      -0.000              -0.000             0.000
    2        0.335 ||       0.000              -0.000            -0.000
    3        0.621 ||       0.000              -0.000             0.000
    4        0.811 ||       0.000              -0.000             0.000
    5        0.843 ||       0.000               0.000             0.000
    6        0.863 ||      -0.000              -0.000             0.000
    7     1373.090 ||       0.383              -0.426             0.192
    8     1373.090 ||      -0.267               0.004             0.542
    9     1373.090 ||       0.384               0.428             0.186
   10     1593.149 ||       0.000              -0.000            -0.000
   11     1593.149 ||       0.000              -0.000            -0.000
   12     3053.488 ||       0.000              -0.000             0.000
   13     3163.280 ||      -0.501               0.556            -0.253
   14     3163.280 ||       0.346              -0.011            -0.710
   15     3163.280 ||      -0.504              -0.561            -0.237
 ----------------------------------------------------------------------------



  
  
 ----------------------------------------------------------------------------
 Normal Eigenvalue ||                 Infra Red Intensities
  Mode   [cm**-1]  || [atomic units] [(debye/angs)**2] [(KM/mol)] [arbitrary]
 ------ ---------- || -------------- ----------------- ---------- -----------
    1       -0.314 ||    0.000000           0.000         0.000       0.000
    2        0.335 ||    0.000000           0.000         0.000       0.000
    3        0.621 ||    0.000000           0.000         0.000       0.000
    4        0.811 ||    0.000000           0.000         0.000       0.000
    5        0.843 ||    0.000000           0.000         0.000       0.000
    6        0.863 ||    0.000000           0.000         0.000       0.000
    7     1373.090 ||    0.015810           0.365        15.412      18.432
    8     1373.090 ||    0.015810           0.365        15.412      18.432
    9     1373.090 ||    0.015810           0.365        15.412      18.432
   10     1593.149 ||    0.000000           0.000         0.000       0.000
   11     1593.149 ||    0.000000           0.000         0.000       0.000
   12     3053.488 ||    0.000000           0.000         0.000       0.000
   13     3163.280 ||    0.027078           0.625        26.397      31.568
   14     3163.280 ||    0.027078           0.625        26.397      31.568
   15     3163.280 ||    0.027078           0.625        26.397      31.568
 ----------------------------------------------------------------------------



 
 
        Vibrational analysis via the FX method 
  --- with translations and rotations projected out ---
  --- via the Eckart algorithm                      ---
 Projected Nuclear Hessian trans-rot subspace norm:6.5181D-33
                         (should be close to zero!) 

          --------------------------------------------------------
          MASS-WEIGHTED PROJECTED HESSIAN (Hartree/Bohr/Bohr/Kamu)
          --------------------------------------------------------


               1            2            3            4            5            6            7            8            9           10
   ----- ----- ----- ----- -----
    1    4.65767D+01
    2   -7.86665D-07  4.65767D+01
    3   -3.51534D-07 -5.69011D-07  4.65767D+01
    4   -4.01797D+01 -2.63143D+01 -2.63143D+01  1.46274D+02
    5   -2.63143D+01 -4.01797D+01 -2.63143D+01  9.99001D+01  1.46274D+02
    6   -2.63143D+01 -2.63143D+01 -4.01797D+01  9.99001D+01  9.99001D+01  1.46274D+02
    7   -4.01797D+01 -2.63143D+01  2.63143D+01 -1.07510D+01 -9.09943D+00  1.17009D+01  1.46274D+02
    8   -2.63143D+01 -4.01797D+01  2.63143D+01 -9.09943D+00 -1.07510D+01  1.17009D+01  9.99001D+01  1.46274D+02
    9    2.63143D+01  2.63143D+01 -4.01797D+01 -1.17009D+01 -1.17009D+01  1.38730D+01 -9.99001D+01 -9.99001D+01  1.46274D+02
   10   -4.01797D+01  2.63143D+01  2.63143D+01  1.38730D+01 -1.17009D+01 -1.17009D+01 -1.07510D+01  1.17009D+01  9.09943D+00  1.46274D+02
   11    2.63143D+01 -4.01797D+01 -2.63143D+01  1.17009D+01 -1.07510D+01 -9.09943D+00 -1.17009D+01  1.38730D+01  1.17009D+01 -9.99001D+01
   12    2.63143D+01 -2.63143D+01 -4.01797D+01  1.17009D+01 -9.09943D+00 -1.07510D+01  9.09943D+00 -1.17009D+01 -1.07510D+01 -9.99001D+01
   13   -4.01797D+01  2.63143D+01 -2.63143D+01 -1.07510D+01  1.17009D+01 -9.09943D+00  1.38730D+01 -1.17009D+01  1.17009D+01 -1.07510D+01
   14    2.63143D+01 -4.01797D+01  2.63143D+01 -1.17009D+01  1.38730D+01 -1.17009D+01  1.17009D+01 -1.07510D+01  9.09943D+00  9.09943D+00
   15   -2.63143D+01  2.63143D+01 -4.01797D+01 -9.09943D+00  1.17009D+01 -1.07510D+01 -1.17009D+01  9.09943D+00 -1.07510D+01  1.17009D+01


              11           12           13           14           15
   ----- ----- ----- ----- -----
   11    1.46274D+02
   12    9.99001D+01  1.46274D+02
   13    9.09943D+00 -1.17009D+01  1.46274D+02
   14   -1.07510D+01  1.17009D+01 -9.99001D+01  1.46274D+02
   15   -1.17009D+01  1.38730D+01  9.99001D+01 -9.99001D+01  1.46274D+02

 center of mass
 --------------
 x =   0.00000000 y =   0.00000000 z =   0.00000000

 moments of inertia (a.u.)
 ------------------
          11.471002038167           0.000000000000           0.000000000000
           0.000000000000          11.471002038167           0.000000000000
           0.000000000000           0.000000000000          11.471002038167

 Rotational Constants
 --------------------
 A=   5.248031 cm-1  (  7.550577 K)
 B=   5.248031 cm-1  (  7.550577 K)
 C=   5.248031 cm-1  (  7.550577 K)


 Temperature                      =   298.15K
 frequency scaling parameter      =   1.0000

 Zero-Point correction to Energy  =   28.362 kcal/mol  (  0.045198 au)
 Thermal correction to Energy     =   30.158 kcal/mol  (  0.048060 au)
 Thermal correction to Enthalpy   =   30.751 kcal/mol  (  0.049004 au)

 Total Entropy                    =   44.455 cal/mol-K
   - Translational                =   34.246 cal/mol-K (mol. weight =  16.0313)
   - Rotational                   =   10.133 cal/mol-K (symmetry #  =       12)
   - Vibrational                  =    0.076 cal/mol-K

 Cv (constant volume heat capacity) =    6.415 cal/mol-K
   - Translational                  =    2.979 cal/mol-K
   - Rotational                     =    2.979 cal/mol-K
   - Vibrational                    =    0.456 cal/mol-K



          -------------------------------------------------
          NORMAL MODE EIGENVECTORS IN CARTESIAN COORDINATES
          -------------------------------------------------
             (Projected Frequencies expressed in cm-1)

                    1           2           3           4           5           6
 
 P.Frequency       -0.00       -0.00        0.00        0.00        0.00        0.00
 
           1     0.00697     0.00060    -0.00013     0.00608     0.24958    -0.00136
           2    -0.00689     0.00628     0.24774     0.01769     0.00000     0.02460
           3    -0.02458     0.24818    -0.00549    -0.00908     0.00027    -0.00836
           4    -0.28373    -0.02565    -0.02482    -0.21747     0.26501     0.33337
           5     0.26281     0.01377     0.30554    -0.25427    -0.00259    -0.28838
           6    -0.00359     0.26693    -0.03861     0.48643    -0.01257    -0.03012
           7    -0.21580    -0.04179     0.04863    -0.24554     0.26009    -0.36307
           8     0.19488     0.02991     0.23210    -0.22621     0.00233     0.40807
           9    -0.04557     0.22943     0.02762    -0.50459     0.01310     0.01339
          10     0.29766     0.02684     0.02457     0.22963     0.23415    -0.33608
          11    -0.20866    -0.01736     0.26338     0.26159    -0.00232    -0.35888
          12     0.46789     0.29806     0.00356    -0.02942    -0.01283     0.04038
          13     0.22973     0.04299    -0.04888     0.25769     0.23907     0.36036
          14    -0.27660    -0.00122     0.18993     0.28965     0.00260     0.33757
          15    -0.51705     0.19829    -0.01454     0.01127     0.01337    -0.05711

                    7           8           9          10          11          12
 
 P.Frequency     1373.09     1373.09     1373.09     1593.15     1593.15     3053.49
 
           1    -0.07320     0.04823    -0.07421    -0.00000     0.00000     0.00000
           2     0.08018    -0.00463    -0.08210    -0.00000     0.00000     0.00000
           3    -0.03747    -0.10413    -0.03071     0.00000    -0.00000     0.00000
           4     0.29762    -0.34657     0.01031    -0.23989    -0.32837     0.28755
           5    -0.44523    -0.09056     0.04857    -0.16443     0.37193     0.28755
           6     0.12455     0.39134    -0.20034     0.40432    -0.04356     0.28755
           7     0.43749     0.04216     0.12496     0.23989     0.32837    -0.28755
           8    -0.30536     0.29818     0.16322     0.16443    -0.37193    -0.28755
           9     0.09852     0.22861     0.38318     0.40432    -0.04356     0.28755
          10     0.13819     0.05946     0.43146    -0.23989    -0.32837     0.28755
          11    -0.17196    -0.27059     0.32558     0.16443    -0.37193    -0.28755
          12     0.39782     0.21131     0.07668    -0.40432     0.04356    -0.28755
          13    -0.00169    -0.32927     0.31681     0.23989     0.32837    -0.28755
          14    -0.03209     0.11815     0.44023    -0.16443     0.37193     0.28755
          15    -0.17475     0.40864     0.10616    -0.40432     0.04356    -0.28755

                   13          14          15
 
 P.Frequency     3163.28     3163.28     3163.28
 
           1    -0.05593     0.03835    -0.05626
           2     0.06195    -0.00157    -0.06265
           3    -0.02827    -0.07932    -0.02597
           4     0.05969     0.14231     0.44848
           5     0.08259     0.13456     0.44724
           6     0.06506     0.11945     0.45436
           7    -0.11959    -0.36071     0.28378
           8    -0.09669    -0.36847     0.28254
           9     0.10323     0.35275    -0.29976
          10     0.27328    -0.37065    -0.11352
          11    -0.27211     0.37779     0.09042
          12    -0.28964     0.36269     0.09754
          13     0.45255     0.13238     0.05117
          14    -0.45138    -0.12523    -0.07427
          15     0.45793     0.10952     0.05706



 ----------------------------------------------------------------------------
 Normal Eigenvalue ||    Projected Derivative Dipole Moments (debye/angs)
  Mode   [cm**-1]  ||      [d/dqX]             [d/dqY]           [d/dqZ]
 ------ ---------- || ------------------ ------------------ -----------------
    1       -0.000 ||      -0.000               0.000             0.000
    2       -0.000 ||       0.000               0.000             0.000
    3        0.000 ||       0.000               0.000            -0.000
    4        0.000 ||       0.000               0.000            -0.000
    5        0.000 ||       0.000               0.000             0.000
    6        0.000 ||      -0.000               0.000            -0.000
    7     1373.090 ||       0.385              -0.422             0.197
    8     1373.090 ||      -0.254               0.024             0.548
    9     1373.090 ||       0.390               0.432             0.161
   10     1593.149 ||      -0.000              -0.000             0.000
   11     1593.149 ||      -0.000              -0.000             0.000
   12     3053.488 ||      -0.000              -0.000            -0.000
   13     3163.280 ||      -0.502               0.556            -0.254
   14     3163.280 ||       0.344              -0.014            -0.711
   15     3163.280 ||      -0.505              -0.562            -0.233
 ----------------------------------------------------------------------------



  
  
 ----------------------------------------------------------------------------
 Normal Eigenvalue ||           Projected Infra Red Intensities
  Mode   [cm**-1]  || [atomic units] [(debye/angs)**2] [(KM/mol)] [arbitrary]
 ------ ---------- || -------------- ----------------- ---------- -----------
    1       -0.000 ||    0.000000           0.000         0.000       0.000
    2       -0.000 ||    0.000000           0.000         0.000       0.000
    3        0.000 ||    0.000000           0.000         0.000       0.000
    4        0.000 ||    0.000000           0.000         0.000       0.000
    5        0.000 ||    0.000000           0.000         0.000       0.000
    6        0.000 ||    0.000000           0.000         0.000       0.000
    7     1373.090 ||    0.015810           0.365        15.412      18.432
    8     1373.090 ||    0.015810           0.365        15.412      18.432
    9     1373.090 ||    0.015810           0.365        15.412      18.432
   10     1593.149 ||    0.000000           0.000         0.000       0.000
   11     1593.149 ||    0.000000           0.000         0.000       0.000
   12     3053.488 ||    0.000000           0.000         0.000       0.000
   13     3163.280 ||    0.027078           0.625        26.397      31.568
   14     3163.280 ||    0.027078           0.625        26.397      31.568
   15     3163.280 ||    0.027078           0.625        26.397      31.568
 ----------------------------------------------------------------------------



 vib:animation  F

 Task  times  cpu:       21.4s     wall:       22.5s
 
 
                                NWChem Input Module
                                -------------------
 
 
 Summary of allocated global arrays
-----------------------------------
  No active global arrays


MA_summarize_allocated_blocks: starting scan ...
MA_summarize_allocated_blocks: scan completed: 0 heap blocks, 0 stack blocks
MA usage statistics:

	allocation statistics:
					      heap	     stack
					      ----	     -----
	current number of blocks	         0	         0
	maximum number of blocks	        26	        57
	current total bytes		         0	         0
	maximum total bytes		   3063184	  89019096
	maximum total K-bytes		      3064	     89020
	maximum total M-bytes		         4	        90
 
 
                                     CITATION
                                     --------
                Please cite the following reference when publishing
                           results obtained with NWChem:
 
          E. Apra, E. J. Bylaska, W. A. de Jong, N. Govind, K. Kowalski,
       T. P. Straatsma, M. Valiev, H. J. J. van Dam, Y. Alexeev, J. Anchell,
       V. Anisimov, F. W. Aquino, R. Atta-Fynn, J. Autschbach, N. P. Bauman,
     J. C. Becca, D. E. Bernholdt, K. Bhaskaran-Nair, S. Bogatko, P. Borowski,
         J. Boschen, J. Brabec, A. Bruner, E. Cauet, Y. Chen, G. N. Chuev,
      C. J. Cramer, J. Daily, M. J. O. Deegan, T. H. Dunning Jr., M. Dupuis,
   K. G. Dyall, G. I. Fann, S. A. Fischer, A. Fonari, H. Fruchtl, L. Gagliardi,
      J. Garza, N. Gawande, S. Ghosh, K. Glaesemann, A. W. Gotz, J. Hammond,
       V. Helms, E. D. Hermes, K. Hirao, S. Hirata, M. Jacquelin, L. Jensen,
   B. G. Johnson, H. Jonsson, R. A. Kendall, M. Klemm, R. Kobayashi, V. Konkov,
      S. Krishnamoorthy, M. Krishnan, Z. Lin, R. D. Lins, R. J. Littlefield,
      A. J. Logsdail, K. Lopata, W. Ma, A. V. Marenich, J. Martin del Campo,
   D. Mejia-Rodriguez, J. E. Moore, J. M. Mullin, T. Nakajima, D. R. Nascimento,
    J. A. Nichols, P. J. Nichols, J. Nieplocha, A. Otero-de-la-Roza, B. Palmer,
    A. Panyala, T. Pirojsirikul, B. Peng, R. Peverati, J. Pittner, L. Pollack,
   R. M. Richard, P. Sadayappan, G. C. Schatz, W. A. Shelton, D. W. Silverstein,
   D. M. A. Smith, T. A. Soares, D. Song, M. Swart, H. L. Taylor, G. S. Thomas,
            V. Tipparaju, D. G. Truhlar, K. Tsemekhman, T. Van Voorhis,
      A. Vazquez-Mayagoitia, P. Verma, O. Villa, A. Vishnu, K. D. Vogiatzis,
        D. Wang, J. H. Weare, M. J. Williamson, T. L. Windus, K. Wolinski,
        A. T. Wong, Q. Wu, C. Yang, Q. Yu, M. Zacharias, Z. Zhang, Y. Zhao,
                                and R. J. Harrison
                        "NWChem: Past, present, and future
                         J. Chem. Phys. 152, 184102 (2020)
                               doi:10.1063/5.0004997
 
                                      AUTHORS
                                      -------
  E. Apra, E. J. Bylaska, N. Govind, K. Kowalski, M. Valiev, D. Mejia-Rodriguez,
       A. Kunitsa, N. P. Bauman, A. Panyala, W. A. de Jong, T. P. Straatsma,
   H. J. J. van Dam, D. Wang, T. L. Windus, J. Hammond, J. Autschbach, A. Woods,
    K. Bhaskaran-Nair, J. Brabec, K. Lopata, S. A. Fischer, S. Krishnamoorthy,
     M. Jacquelin, W. Ma, M. Klemm, O. Villa, Y. Chen, V. Anisimov, F. Aquino,
     S. Hirata, M. T. Hackler, E. Hermes, L. Jensen, J. E. Moore, J. C. Becca,
      V. Konjkov, T. Risthaus, M. Malagoli, A. Marenich, A. Otero-de-la-Roza,
        J. Mullin, P. Nichols, R. Peverati, J. Pittner, Y. Zhao, P.-D. Fan,
        A. Fonari, M. J. Williamson, R. J. Harrison, J. R. Rehr, M. Dupuis,
     D. Silverstein, D. M. A. Smith, J. Nieplocha, V. Tipparaju, M. Krishnan,
     B. E. Van Kuiken, A. Vazquez-Mayagoitia, M. Swart, Q. Wu, T. Van Voorhis,
     A. A. Auer, M. Nooijen, L. D. Crosby, E. Brown, G. Cisneros, G. I. Fann,
   H. Fruchtl, J. Garza, K. Hirao, R. A. Kendall, J. A. Nichols, K. Tsemekhman,
    K. Wolinski, J. Anchell, D. E. Bernholdt, P. Borowski, T. Clark, D. Clerc,
   H. Dachsel, M. J. O. Deegan, K. Dyall, D. Elwood, E. Glendening, M. Gutowski,
   A. C. Hess, J. Jaffe, B. G. Johnson, J. Ju, R. Kobayashi, R. Kutteh, Z. Lin,
   R. Littlefield, X. Long, B. Meng, T. Nakajima, S. Niu, L. Pollack, M. Rosing,
   K. Glaesemann, G. Sandrone, M. Stave, H. Taylor, G. Thomas, J. H. van Lenthe,
                               A. T. Wong, Z. Zhang.

 Total times  cpu:       43.0s     wall:       46.2s
