 argument  1 = urea.nw
 


============================== echo of input deck ==============================
start urea
title "urea opt+freq (B3LYP/6-31g*)"
echo

geometry units angstrom
  C  0.000000  0.000000  0.000000
  O  1.210000  0.000000  0.000000
  N  -0.640000  1.110000  0.000000
  N  -0.640000  -1.110000  0.000000
  H  -1.520000  1.140000  0.810000
  H  -1.520000  1.140000  -0.810000
  H  -1.520000  -1.140000  0.810000
  H  -1.520000  -1.140000  -0.810000
end

charge 0

basis
  * library 6-31g*
end

dft
  xc b3lyp
  grid xfine
end

driver
  maxiter 200
end

task dft optimize
task dft freq
================================================================================


                                         
                                         
 
 
             Northwest Computational Chemistry Package (NWChem) 7.2.2
             --------------------------------------------------------
 
 
                    Environmental Molecular Sciences Laboratory
                       Pacific Northwest National Laboratory
                                Richland, WA 99352
 
                              Copyright (c) 1994-2022
                       Pacific Northwest National Laboratory
                            Battelle Memorial Institute
 
             NWChem is an open-source computational chemistry package
                        distributed under the terms of the
                      Educational Community License (ECL) 2.0
             A copy of the license is included with this distribution
                              in the LICENSE.TXT file
 
                                  ACKNOWLEDGMENT
                                  --------------

            This software and its documentation were developed at the
            EMSL at Pacific Northwest National Laboratory, a multiprogram
            national laboratory, operated for the U.S. Department of Energy
            by Battelle under Contract Number DE-AC05-76RL01830. Support
            for this work was provided by the Department of Energy Office
            of Biological and Environmental Research, Office of Basic
            Energy Sciences, and the Office of Advanced Scientific Computing.


           Job information
           ---------------

    hostname        = charliebox
    program         = /apps/nwchem/bin/nwchem
    date            = Sun Oct 19 15:10:59 2025

    compiled        = Tue_Apr_23_01:04:59_2024
    source          = /apps/nwchem-7.2.2-release
    nwchem branch   = 7.2.2
    nwchem revision = N/A
    ga revision     = 5.8.0
    use scalapack   = T
    input           = urea.nw
    prefix          = urea.
    data base       = ./urea.db
    status          = startup
    nproc           =       19
    time left       =     -1s



           Memory information
           ------------------

    heap     =   26214394 doubles =    200.0 Mbytes
    stack    =   26214399 doubles =    200.0 Mbytes
    global   =   52428800 doubles =    400.0 Mbytes (distinct from heap & stack)
    total    =  104857593 doubles =    800.0 Mbytes
    verify   = yes
    hardfail = no 


           Directory information
           ---------------------
 
  0 permanent = .
  0 scratch   = .
 
 
 
 
                                NWChem Input Module
                                -------------------
 
 
                           urea opt+freq (B3LYP/6-31g*)
                           ----------------------------

 Scaling coordinates for geometry "geometry" by  1.889725989
 (inverse scale =  0.529177249)

 C2V symmetry detected

          ------
          auto-z
          ------
  no constraints, skipping   0.000000000000000E+000
  no constraints, skipping   0.000000000000000E+000
 
 
                             Geometry "geometry" -> ""
                             -------------------------
 
 Output coordinates in angstroms (scale by  1.889725989 to convert to a.u.)
 
  No.       Tag          Charge          X              Y              Z
 ---- ---------------- ---------- -------------- -------------- --------------
    1 C                    6.0000     0.00000000     0.00000000    -0.16750000
    2 O                    8.0000     0.00000000     0.00000000    -1.37750000
    3 N                    7.0000     0.00000000     1.11000000     0.47250000
    4 N                    7.0000     0.00000000    -1.11000000     0.47250000
    5 H                    1.0000     0.81000000     1.14000000     1.35250000
    6 H                    1.0000    -0.81000000     1.14000000     1.35250000
    7 H                    1.0000     0.81000000    -1.14000000     1.35250000
    8 H                    1.0000    -0.81000000    -1.14000000     1.35250000
 
      Atomic Mass 
      ----------- 
 
      C                 12.000000
      O                 15.994910
      N                 14.003070
      H                  1.007825
 

 Effective nuclear repulsion energy (a.u.)     126.2005000973

            Nuclear Dipole moment (a.u.) 
            ----------------------------
        X                 Y               Z
 ---------------- ---------------- ----------------
     0.0000000000     0.0000000000     0.0000000000
 
      Symmetry information
      --------------------
 
 Group name             C2v       
 Group number             16
 Group order               4
 No. of unique centers     4
 
      Symmetry unique atoms
 
     1    2    3    5
 


                                Z-matrix (autoz)
                                -------- 

 Units are Angstrom for bonds and degrees for angles
 
      Type          Name      I     J     K     L     M      Value
      ----------- --------  ----- ----- ----- ----- ----- ----------
    1 Stretch                  1     2                       1.21000
    2 Stretch                  1     3                       1.28129
    3 Stretch                  1     4                       1.28129
    4 Stretch                  3     5                       1.19641
    5 Stretch                  3     6                       1.19641
    6 Stretch                  4     7                       1.19641
    7 Stretch                  4     8                       1.19641
    8 Bend                     1     3     5               112.89973
    9 Bend                     1     3     6               112.89973
   10 Bend                     1     4     7               112.89973
   11 Bend                     1     4     8               112.89973
   12 Bend                     2     1     3               119.96674
   13 Bend                     2     1     4               119.96674
   14 Bend                     3     1     4               120.06652
   15 Bend                     5     3     6                85.22316
   16 Bend                     7     4     8                85.22316
   17 Torsion                  2     1     3     5        -132.69718
   18 Torsion                  2     1     3     6         132.69718
   19 Torsion                  2     1     4     7         132.69718
   20 Torsion                  2     1     4     8        -132.69718
   21 Torsion                  3     1     4     7         -47.30282
   22 Torsion                  3     1     4     8          47.30282
   23 Torsion                  4     1     3     5          47.30282
   24 Torsion                  4     1     3     6         -47.30282
 
 
            XYZ format geometry
            -------------------
     8
 geometry
 C                     0.00000000     0.00000000    -0.16750000
 O                     0.00000000     0.00000000    -1.37750000
 N                     0.00000000     1.11000000     0.47250000
 N                     0.00000000    -1.11000000     0.47250000
 H                     0.81000000     1.14000000     1.35250000
 H                    -0.81000000     1.14000000     1.35250000
 H                     0.81000000    -1.14000000     1.35250000
 H                    -0.81000000    -1.14000000     1.35250000
 
 ==============================================================================
                                internuclear distances
 ------------------------------------------------------------------------------
       center one      |      center two      | atomic units |  angstroms
 ------------------------------------------------------------------------------
    2 O                |   1 C                |     2.28657  |     1.21000
    3 N                |   1 C                |     2.42128  |     1.28129
    4 N                |   1 C                |     2.42128  |     1.28129
 ------------------------------------------------------------------------------
                         number of included internuclear distances:          3
 ==============================================================================



 ==============================================================================
                                 internuclear angles
 ------------------------------------------------------------------------------
        center 1       |       center 2       |       center 3       |  degrees
 ------------------------------------------------------------------------------
    2 O                |   1 C                |   3 N                |   119.97
    2 O                |   1 C                |   4 N                |   119.97
    3 N                |   1 C                |   4 N                |   120.07
 ------------------------------------------------------------------------------
                            number of included internuclear angles:          3
 ==============================================================================



  library name resolved from: environment
  library file name is: </apps/nwchem/data/libraries/>
  


 Summary of "ao basis" -> "" (cartesian)
 ------------------------------------------------------------------------------
       Tag                 Description            Shells   Functions and Types
 ---------------- ------------------------------  ------  ---------------------
 *                           6-31g*                   on all atoms 


 
 
                           NWChem Geometry Optimization
                           ----------------------------
 
 
 
 
                           urea opt+freq (B3LYP/6-31g*)
 
 
  no constraints, skipping   0.000000000000000E+000
 maximum gradient threshold         (gmax) =   0.000450
 rms gradient threshold             (grms) =   0.000300
 maximum cartesian step threshold   (xmax) =   0.001800
 rms cartesian step threshold       (xrms) =   0.001200
 fixed trust radius                (trust) =   0.300000
 maximum step size to saddle      (sadstp) =   0.100000
 energy precision                  (eprec) =   5.0D-06
 maximum number of steps          (nptopt) =  200
 initial hessian option           (inhess) =    0
 line search option               (linopt) =    1
 hessian update option            (modupd) =    1
 saddle point option              (modsad) =    0
 initial eigen-mode to follow     (moddir) =    0
 initial variable to follow       (vardir) =    0
 follow first negative mode     (firstneg) =    T
 apply conjugacy                    (opcg) =    F
 source of zmatrix                         =   autoz   


          -------------------
          Energy Minimization
          -------------------

 
 Names of Z-matrix variables 
    1              2              3              4              5         
    6              7              8              9             10         
   11             12             13             14             15         
   16             17             18             19             20         
   21             22             23             24         
 
 Variables with the same non-blank name are constrained to be equal
 
 
 Using old Hessian from previous optimization

          --------
          Step   0
          --------
 
 
                         Geometry "geometry" -> "geometry"
                         ---------------------------------
 
 Output coordinates in angstroms (scale by  1.889725989 to convert to a.u.)
 
  No.       Tag          Charge          X              Y              Z
 ---- ---------------- ---------- -------------- -------------- --------------
    1 C                    6.0000     0.00000000     0.00000000    -0.16750000
    2 O                    8.0000     0.00000000     0.00000000    -1.37750000
    3 N                    7.0000     0.00000000     1.11000000     0.47250000
    4 N                    7.0000     0.00000000    -1.11000000     0.47250000
    5 H                    1.0000     0.81000000     1.14000000     1.35250000
    6 H                    1.0000    -0.81000000     1.14000000     1.35250000
    7 H                    1.0000     0.81000000    -1.14000000     1.35250000
    8 H                    1.0000    -0.81000000    -1.14000000     1.35250000
 
      Atomic Mass 
      ----------- 
 
      C                 12.000000
      O                 15.994910
      N                 14.003070
      H                  1.007825
 

 Effective nuclear repulsion energy (a.u.)     126.2005000973

            Nuclear Dipole moment (a.u.) 
            ----------------------------
        X                 Y               Z
 ---------------- ---------------- ----------------
     0.0000000000     0.0000000000     0.0000000000
 
      Symmetry information
      --------------------
 
 Group name             C2v       
 Group number             16
 Group order               4
 No. of unique centers     4
 
      Symmetry unique atoms
 
     1    2    3    5
 
 
                                 NWChem DFT Module
                                 -----------------
 
 
                           urea opt+freq (B3LYP/6-31g*)
 
 
                      Basis "ao basis" -> "ao basis" (cartesian)
                      -----
  C (Carbon)
  ----------
            Exponent  Coefficients 
       -------------- ---------------------------------------------------------
  1 S  3.04752490E+03  0.001835
  1 S  4.57369510E+02  0.014037
  1 S  1.03948690E+02  0.068843
  1 S  2.92101550E+01  0.232184
  1 S  9.28666300E+00  0.467941
  1 S  3.16392700E+00  0.362312
 
  2 S  7.86827240E+00 -0.119332
  2 S  1.88128850E+00 -0.160854
  2 S  5.44249300E-01  1.143456
 
  3 P  7.86827240E+00  0.068999
  3 P  1.88128850E+00  0.316424
  3 P  5.44249300E-01  0.744308
 
  4 S  1.68714400E-01  1.000000
 
  5 P  1.68714400E-01  1.000000
 
  6 D  8.00000000E-01  1.000000
 
  O (Oxygen)
  ----------
            Exponent  Coefficients 
       -------------- ---------------------------------------------------------
  1 S  5.48467170E+03  0.001831
  1 S  8.25234950E+02  0.013950
  1 S  1.88046960E+02  0.068445
  1 S  5.29645000E+01  0.232714
  1 S  1.68975700E+01  0.470193
  1 S  5.79963530E+00  0.358521
 
  2 S  1.55396160E+01 -0.110778
  2 S  3.59993360E+00 -0.148026
  2 S  1.01376180E+00  1.130767
 
  3 P  1.55396160E+01  0.070874
  3 P  3.59993360E+00  0.339753
  3 P  1.01376180E+00  0.727159
 
  4 S  2.70005800E-01  1.000000
 
  5 P  2.70005800E-01  1.000000
 
  6 D  8.00000000E-01  1.000000
 
  N (Nitrogen)
  ------------
            Exponent  Coefficients 
       -------------- ---------------------------------------------------------
  1 S  4.17351100E+03  0.001835
  1 S  6.27457900E+02  0.013995
  1 S  1.42902100E+02  0.068587
  1 S  4.02343300E+01  0.232241
  1 S  1.28202100E+01  0.469070
  1 S  4.39043700E+00  0.360455
 
  2 S  1.16263580E+01 -0.114961
  2 S  2.71628000E+00 -0.169118
  2 S  7.72218000E-01  1.145852
 
  3 P  1.16263580E+01  0.067580
  3 P  2.71628000E+00  0.323907
  3 P  7.72218000E-01  0.740895
 
  4 S  2.12031300E-01  1.000000
 
  5 P  2.12031300E-01  1.000000
 
  6 D  8.00000000E-01  1.000000
 
  H (Hydrogen)
  ------------
            Exponent  Coefficients 
       -------------- ---------------------------------------------------------
  1 S  1.87311370E+01  0.033495
  1 S  2.82539370E+00  0.234727
  1 S  6.40121700E-01  0.813757
 
  2 S  1.61277800E-01  1.000000
 


 Summary of "ao basis" -> "ao basis" (cartesian)
 ------------------------------------------------------------------------------
       Tag                 Description            Shells   Functions and Types
 ---------------- ------------------------------  ------  ---------------------
 C                           6-31g*                  6       15   3s2p1d
 O                           6-31g*                  6       15   3s2p1d
 N                           6-31g*                  6       15   3s2p1d
 H                           6-31g*                  2        2   2s




 Summary of "ao basis" -> "ao basis" (cartesian)
 ------------------------------------------------------------------------------
       Tag                 Description            Shells   Functions and Types
 ---------------- ------------------------------  ------  ---------------------
 C                           6-31g*                  6       15   3s2p1d
 O                           6-31g*                  6       15   3s2p1d
 N                           6-31g*                  6       15   3s2p1d
 H                           6-31g*                  2        2   2s


      Symmetry analysis of basis
      --------------------------
 
        a1         29
        a2          8
        b1         12
        b2         19
 
  Caching 1-el integrals 
 
            General Information
            -------------------
          SCF calculation type: DFT
          Wavefunction type:  closed shell.
          No. of atoms     :     8
          No. of electrons :    32
           Alpha electrons :    16
            Beta electrons :    16
          Charge           :     0
          Spin multiplicity:     1
          Use of symmetry is: on ; symmetry adaption is: on 
          Maximum number of iterations:  50
          AO basis - number of functions:    68
                     number of shells:    32
          Convergence on energy requested:  1.00D-06
          Convergence on density requested:  1.00D-05
          Convergence on gradient requested:  5.00D-04
 
              XC Information
              --------------
                         B3LYP Method XC Potential
                     Hartree-Fock (Exact) Exchange  0.200          
                        Slater Exchange Functional  0.800 local    
                    Becke 1988 Exchange Functional  0.720 non-local
              Lee-Yang-Parr Correlation Functional  0.810          
                  VWN I RPA Correlation Functional  0.190 local    
 
             Grid Information
             ----------------
          Grid used for XC integration:  xfine     
          Radial quadrature: Mura-Knowles        
          Angular quadrature: Lebedev. 
          Tag              B.-S. Rad. Rad. Pts. Rad. Cut. Ang. Pts.
          ---              ---------- --------- --------- ---------
          C                   0.70      100           7.0      1454
          O                   0.60      100           9.0      1454
          N                   0.65      100           8.0      1454
          H                   0.35      100           8.0      1202
          Grid pruning is: on 
          Number of quadrature shells:   400
          Spatial weights used:  Erf1
 
          Convergence Information
          -----------------------
          Convergence aids based upon iterative change in 
          total energy or number of iterations. 
          Levelshifting, if invoked, occurs when the 
          HOMO/LUMO gap drops below (HL_TOL):  1.00D-02
          DIIS, if invoked, will attempt to extrapolate 
          using up to (NFOCK): 10 stored Fock matrices.

                    Damping( 0%)  Levelshifting(0.5)       DIIS
                  --------------- ------------------- ---------------
          dE  on:    start            ASAP                start   
          dE off:    2 iters         50 iters            50 iters 

 
      Screening Tolerance Information
      -------------------------------
          Density screening/tol_rho:  1.00D-10
          AO Gaussian exp screening on grid/accAOfunc:  14
          CD Gaussian exp screening on grid/accCDfunc:  20
          XC Gaussian exp screening on grid/accXCfunc:  20
          Schwarz screening/accCoul:  1.00D-08

 
      Superposition of Atomic Density Guess
      -------------------------------------
 
 Sum of atomic energies:        -222.99501303
 
      Non-variational initial energy
      ------------------------------

 Total energy =    -225.075269
 1-e energy   =    -553.500927
 2-e energy   =     202.225158
 HOMO         =      -0.273579
 LUMO         =      -0.007677
 
 
      Symmetry analysis of molecular orbitals - initial
      -------------------------------------------------
 
  Numbering of irreducible representations: 
 
     1 a1          2 a2          3 b1          4 b2      
 
  Orbital symmetries:
 
     1 a1          2 a1          3 b2          4 a1          5 a1      
     6 a1          7 b2          8 a1          9 b2         10 b1      
    11 a1         12 b1         13 a2         14 a1         15 b2      
    16 b2         17 b1         18 a1         19 b2         20 a2      
    21 b1         22 a1         23 a1         24 b2         25 a1      
    26 b1      
 
  WARNING: movecs_in_org=atomic not equal to movecs_in=./urea.movecs
   Time after variat. SCF:      7.1
   Time prior to 1st pass:      7.1

 Integral file          = ./urea.aoints.00
 Record size in doubles =  65536        No. of integs per rec  =  43688
 Max. records in memory =      4        Max. records in file   = 224870
 No. of bits per label  =      8        No. of bits per value  =     64


 #quartets = 5.160D+04 #integrals = 7.945D+05 #direct =  0.0% #cached =100.0%


File balance: exchanges=     0  moved=     0  time=   0.0


 Grid_pts file          = ./urea.gridpts.00
 Record size in doubles =  12289        No. of grid_pts per rec  =   3070
 Max. records in memory =     12        Max. recs in file   =   1199213

 Grid integrated density:      32.000000412104
 Requested integration accuracy:   0.10E-07

           Memory utilization after 1st SCF pass: 
           Heap Space remaining (MW):       25.80            25801738
          Stack Space remaining (MW):       26.21            26213836

   convergence    iter        energy       DeltaE   RMS-Dens  Diis-err    time
 ---------------- ----- ----------------- --------- --------- ---------  ------
 d= 0,ls=0.0,diis     1   -224.9046284264 -3.51D+02  5.84D-02  1.40D+00     9.6
 Grid integrated density:      32.000000432447
 Requested integration accuracy:   0.10E-07
 d= 0,ls=0.0,diis     2   -224.1333308266  7.71D-01  4.90D-02  8.19D+00    12.6
 Grid integrated density:      32.000000381628
 Requested integration accuracy:   0.10E-07
 d= 0,ls=0.0,diis     3   -225.0733475172 -9.40D-01  5.40D-03  1.24D-01    14.8
 Grid integrated density:      32.000000357624
 Requested integration accuracy:   0.10E-07
 d= 0,ls=0.0,diis     4   -225.0817059786 -8.36D-03  2.13D-03  3.97D-02    15.3
 d= 0,ls=0.0,diis     5   -225.0851894685 -3.48D-03  7.20D-04  4.03D-03    17.1
  Resetting Diis
 d= 0,ls=0.0,diis     6   -225.0856499896 -4.61D-04  1.29D-04  1.76D-04    17.2
 d= 0,ls=0.0,diis     7   -225.0856664859 -1.65D-05  1.59D-04  1.41D-05    17.3
 d= 0,ls=0.0,diis     8   -225.0856613343  5.15D-06  8.72D-05  6.58D-05    18.6
 d= 0,ls=0.0,diis     9   -225.0856682551 -6.92D-06  9.60D-06  6.08D-07    20.3
 d= 0,ls=0.0,diis    10   -225.0856683164 -6.13D-08  3.04D-06  3.97D-08    20.4


         Total DFT energy =     -225.085668316410
      One electron energy =     -555.943574078297
           Coulomb energy =      233.900482431869
    Exchange-Corr. energy =      -29.243076767280
 Nuclear repulsion energy =      126.200500097298

 Numeric. integr. density =       32.000000008869

     Total iterative time =     13.3s


 
                  Occupations of the irreducible representations
                  ----------------------------------------------
 
                     irrep           alpha         beta
                     --------     --------     --------
                     a1                8.0          8.0
                     a2                1.0          1.0
                     b1                2.0          2.0
                     b2                5.0          5.0
 
 
                       DFT Final Molecular Orbital Analysis
                       ------------------------------------
 
 Vector    1  Occ=2.000000D+00  E=-1.913625D+01  Symmetry=a1
              MO Center= -1.1D-21, -7.0D-19, -1.4D+00, r^2= 1.5D-02
   Bfn.  Coefficient  Atom+Function         Bfn.  Coefficient  Atom+Function  
  ----- ------------  ---------------      ----- ------------  ---------------
    16      0.992708  2 O  s                 17      0.025577  2 O  s          
 
 Vector    2  Occ=2.000000D+00  E=-1.436684D+01  Symmetry=b2
              MO Center=  5.0D-18,  1.0D-10,  4.7D-01, r^2= 1.3D+00
   Bfn.  Coefficient  Atom+Function         Bfn.  Coefficient  Atom+Function  
  ----- ------------  ---------------      ----- ------------  ---------------
    31      0.701978  3 N  s                 46     -0.701978  4 N  s          
 
 Vector    3  Occ=2.000000D+00  E=-1.436682D+01  Symmetry=a1
              MO Center=  6.2D-23, -1.0D-10,  4.7D-01, r^2= 1.3D+00
   Bfn.  Coefficient  Atom+Function         Bfn.  Coefficient  Atom+Function  
  ----- ------------  ---------------      ----- ------------  ---------------
    31      0.701968  3 N  s                 46      0.701968  4 N  s          
 
 Vector    4  Occ=2.000000D+00  E=-1.030929D+01  Symmetry=a1
              MO Center=  9.1D-20,  1.5D-18, -1.7D-01, r^2= 2.8D-02
   Bfn.  Coefficient  Atom+Function         Bfn.  Coefficient  Atom+Function  
  ----- ------------  ---------------      ----- ------------  ---------------
     1      0.992565  1 C  s                  2      0.049481  1 C  s          
 
 Vector    5  Occ=2.000000D+00  E=-1.081457D+00  Symmetry=a1
              MO Center=  2.8D-16,  2.8D-16, -5.5D-01, r^2= 1.0D+00
   Bfn.  Coefficient  Atom+Function         Bfn.  Coefficient  Atom+Function  
  ----- ------------  ---------------      ----- ------------  ---------------
    17      0.326341  2 O  s                 21      0.315880  2 O  s          
     2      0.301618  1 C  s                  1     -0.153784  1 C  s          
    16     -0.151731  2 O  s                 20      0.142040  2 O  pz         
    32      0.139133  3 N  s                 47      0.139133  4 N  s          
    36      0.111787  3 N  s                 51      0.111787  4 N  s          
 
 Vector    6  Occ=2.000000D+00  E=-9.487170D-01  Symmetry=a1
              MO Center=  4.7D-16,  2.2D-15, -1.7D-02, r^2= 1.6D+00
   Bfn.  Coefficient  Atom+Function         Bfn.  Coefficient  Atom+Function  
  ----- ------------  ---------------      ----- ------------  ---------------
    17     -0.288978  2 O  s                  5      0.278163  1 C  pz         
    21     -0.277230  2 O  s                 36      0.250889  3 N  s          
    51      0.250889  4 N  s                 32      0.210752  3 N  s          
    47      0.210752  4 N  s                 16      0.131440  2 O  s          
    31     -0.106069  3 N  s                 46     -0.106069  4 N  s          
 
 Vector    7  Occ=2.000000D+00  E=-8.745195D-01  Symmetry=b2
              MO Center= -1.7D-16, -2.7D-15,  4.4D-01, r^2= 1.5D+00
   Bfn.  Coefficient  Atom+Function         Bfn.  Coefficient  Atom+Function  
  ----- ------------  ---------------      ----- ------------  ---------------
    36      0.367836  3 N  s                 51     -0.367836  4 N  s          
    32      0.296505  3 N  s                 47     -0.296505  4 N  s          
     4      0.269744  1 C  py                31     -0.147308  3 N  s          
    46      0.147308  4 N  s                 34     -0.079415  3 N  py         
    49     -0.079415  4 N  py                61      0.065612  5 H  s          
 
 Vector    8  Occ=2.000000D+00  E=-5.899990D-01  Symmetry=a1
              MO Center= -3.6D-15, -1.7D-14,  5.4D-01, r^2= 2.5D+00
   Bfn.  Coefficient  Atom+Function         Bfn.  Coefficient  Atom+Function  
  ----- ------------  ---------------      ----- ------------  ---------------
     2      0.264016  1 C  s                  6      0.236338  1 C  s          
    35     -0.222948  3 N  pz                50     -0.222948  4 N  pz         
    36     -0.205956  3 N  s                 51     -0.205956  4 N  s          
    34     -0.177134  3 N  py                49      0.177134  4 N  py         
    17     -0.161134  2 O  s                 21     -0.155929  2 O  s          
 
 Vector    9  Occ=2.000000D+00  E=-5.597943D-01  Symmetry=b2
              MO Center=  1.5D-15,  1.5D-14,  5.0D-01, r^2= 2.1D+00
   Bfn.  Coefficient  Atom+Function         Bfn.  Coefficient  Atom+Function  
  ----- ------------  ---------------      ----- ------------  ---------------
     4      0.346365  1 C  py                35     -0.277463  3 N  pz         
    50      0.277463  4 N  pz                34     -0.151335  3 N  py         
    39     -0.151947  3 N  pz                49     -0.151335  4 N  py         
    54      0.151947  4 N  pz                19      0.144084  2 O  py         
    61     -0.114857  5 H  s                 63     -0.114857  6 H  s          
 
 Vector   10  Occ=2.000000D+00  E=-5.192615D-01  Symmetry=b1
              MO Center=  1.8D-15,  7.2D-15,  3.5D-01, r^2= 2.1D+00
   Bfn.  Coefficient  Atom+Function         Bfn.  Coefficient  Atom+Function  
  ----- ------------  ---------------      ----- ------------  ---------------
     3      0.307003  1 C  px                33      0.277716  3 N  px         
    48      0.277716  4 N  px                18      0.166210  2 O  px         
    37      0.142783  3 N  px                52      0.142783  4 N  px         
     7      0.125335  1 C  px                61      0.107525  5 H  s          
    63     -0.107525  6 H  s                 65      0.107525  7 H  s          
 
 Vector   11  Occ=2.000000D+00  E=-4.434534D-01  Symmetry=a1
              MO Center=  8.0D-16,  2.4D-15, -1.0D+00, r^2= 1.6D+00
   Bfn.  Coefficient  Atom+Function         Bfn.  Coefficient  Atom+Function  
  ----- ------------  ---------------      ----- ------------  ---------------
    20      0.462480  2 O  pz                21     -0.450921  2 O  s          
     5     -0.350438  1 C  pz                24      0.217792  2 O  pz         
    17     -0.194009  2 O  s                 34      0.167259  3 N  py         
    49     -0.167259  4 N  py                38      0.096958  3 N  py         
    53     -0.096958  4 N  py                16      0.096280  2 O  s          
 
 Vector   12  Occ=2.000000D+00  E=-4.113985D-01  Symmetry=a2
              MO Center= -1.4D-15, -7.2D-15,  8.0D-01, r^2= 2.4D+00
   Bfn.  Coefficient  Atom+Function         Bfn.  Coefficient  Atom+Function  
  ----- ------------  ---------------      ----- ------------  ---------------
    33      0.351521  3 N  px                48     -0.351521  4 N  px         
    37      0.217138  3 N  px                52     -0.217138  4 N  px         
    61      0.161514  5 H  s                 63     -0.161514  6 H  s          
    65     -0.161514  7 H  s                 67      0.161514  8 H  s          
    62      0.146392  5 H  s                 64     -0.146392  6 H  s          
 
 Vector   13  Occ=2.000000D+00  E=-3.420337D-01  Symmetry=a1
              MO Center= -1.6D-16, -8.5D-16,  1.9D-01, r^2= 2.6D+00
   Bfn.  Coefficient  Atom+Function         Bfn.  Coefficient  Atom+Function  
  ----- ------------  ---------------      ----- ------------  ---------------
    36      0.303447  3 N  s                 51      0.303447  4 N  s          
    35     -0.240081  3 N  pz                50     -0.240081  4 N  pz         
    20     -0.231447  2 O  pz                34      0.220229  3 N  py         
    49     -0.220229  4 N  py                38      0.186745  3 N  py         
    53     -0.186745  4 N  py                24     -0.181441  2 O  pz         
 
 Vector   14  Occ=2.000000D+00  E=-3.407792D-01  Symmetry=b1
              MO Center=  5.7D-16, -3.0D-16, -5.1D-01, r^2= 2.3D+00
   Bfn.  Coefficient  Atom+Function         Bfn.  Coefficient  Atom+Function  
  ----- ------------  ---------------      ----- ------------  ---------------
    18      0.490459  2 O  px                22      0.323025  2 O  px         
     3      0.248400  1 C  px                 7      0.155516  1 C  px         
    62     -0.144819  5 H  s                 64      0.144819  6 H  s          
    66     -0.144819  7 H  s                 68      0.144819  8 H  s          
    33     -0.141050  3 N  px                48     -0.141050  4 N  px         
 
 Vector   15  Occ=2.000000D+00  E=-2.801589D-01  Symmetry=b2
              MO Center=  4.5D-17,  8.7D-16, -7.1D-01, r^2= 1.9D+00
   Bfn.  Coefficient  Atom+Function         Bfn.  Coefficient  Atom+Function  
  ----- ------------  ---------------      ----- ------------  ---------------
    19      0.530944  2 O  py                23      0.336099  2 O  py         
    34      0.278273  3 N  py                49      0.278273  4 N  py         
    38      0.250808  3 N  py                53      0.250808  4 N  py         
     8      0.247588  1 C  py                36     -0.214572  3 N  s          
    51      0.214572  4 N  s                  4     -0.101742  1 C  py         
 
 Vector   16  Occ=2.000000D+00  E=-2.443078D-01  Symmetry=b2
              MO Center=  6.8D-19, -7.2D-17,  1.5D-03, r^2= 2.7D+00
   Bfn.  Coefficient  Atom+Function         Bfn.  Coefficient  Atom+Function  
  ----- ------------  ---------------      ----- ------------  ---------------
    19      0.347240  2 O  py                34     -0.302245  3 N  py         
    49     -0.302245  4 N  py                23      0.245591  2 O  py         
    38     -0.245011  3 N  py                53     -0.245011  4 N  py         
    35      0.218808  3 N  pz                50     -0.218808  4 N  pz         
    36     -0.211078  3 N  s                 51      0.211078  4 N  s          
 
 Vector   17  Occ=0.000000D+00  E=-5.887831D-02  Symmetry=b1
              MO Center=  5.7D-15,  3.3D-15,  2.7D-01, r^2= 3.3D+00
   Bfn.  Coefficient  Atom+Function         Bfn.  Coefficient  Atom+Function  
  ----- ------------  ---------------      ----- ------------  ---------------
    62     -0.425846  5 H  s                 64      0.425846  6 H  s          
    66     -0.425846  7 H  s                 68      0.425846  8 H  s          
     3      0.396837  1 C  px                18     -0.373147  2 O  px         
    22     -0.346469  2 O  px                 7      0.283320  1 C  px         
    37      0.187626  3 N  px                52      0.187626  4 N  px         
 
 Vector   18  Occ=0.000000D+00  E=-1.684579D-02  Symmetry=a1
              MO Center= -1.4D-15, -1.0D-15,  1.3D+00, r^2= 3.5D+00
   Bfn.  Coefficient  Atom+Function         Bfn.  Coefficient  Atom+Function  
  ----- ------------  ---------------      ----- ------------  ---------------
    36      0.817190  3 N  s                 51      0.817190  4 N  s          
    62     -0.595067  5 H  s                 64     -0.595067  6 H  s          
    66     -0.595067  7 H  s                 68     -0.595067  8 H  s          
    39      0.425556  3 N  pz                54      0.425556  4 N  pz         
     6     -0.338225  1 C  s                 35      0.263713  3 N  pz         
 
 Vector   19  Occ=0.000000D+00  E= 4.833581D-02  Symmetry=b2
              MO Center= -3.2D-17,  1.0D-15,  1.4D+00, r^2= 3.8D+00
   Bfn.  Coefficient  Atom+Function         Bfn.  Coefficient  Atom+Function  
  ----- ------------  ---------------      ----- ------------  ---------------
    36      0.860733  3 N  s                 51     -0.860733  4 N  s          
    62     -0.718089  5 H  s                 64     -0.718089  6 H  s          
    66      0.718089  7 H  s                 68      0.718089  8 H  s          
    39      0.441467  3 N  pz                54     -0.441467  4 N  pz         
    35      0.251887  3 N  pz                50     -0.251887  4 N  pz         
 
 Vector   20  Occ=0.000000D+00  E= 7.074163D-02  Symmetry=a2
              MO Center=  6.6D-16, -3.3D-15,  1.2D+00, r^2= 3.6D+00
   Bfn.  Coefficient  Atom+Function         Bfn.  Coefficient  Atom+Function  
  ----- ------------  ---------------      ----- ------------  ---------------
    62      0.764176  5 H  s                 64     -0.764176  6 H  s          
    66     -0.764176  7 H  s                 68      0.764176  8 H  s          
    37     -0.525169  3 N  px                52      0.525169  4 N  px         
    33     -0.318423  3 N  px                48      0.318423  4 N  px         
    61      0.151159  5 H  s                 63     -0.151159  6 H  s          
 
 Vector   21  Occ=0.000000D+00  E= 1.210431D-01  Symmetry=b1
              MO Center= -3.8D-15,  3.0D-16,  5.0D-01, r^2= 3.1D+00
   Bfn.  Coefficient  Atom+Function         Bfn.  Coefficient  Atom+Function  
  ----- ------------  ---------------      ----- ------------  ---------------
     7      0.683279  1 C  px                37     -0.620126  3 N  px         
    52     -0.620126  4 N  px                62      0.543375  5 H  s          
    64     -0.543375  6 H  s                 66      0.543375  7 H  s          
    68     -0.543375  8 H  s                  3      0.414049  1 C  px         
    33     -0.347797  3 N  px                48     -0.347797  4 N  px         
 
 Vector   22  Occ=0.000000D+00  E= 3.058205D-01  Symmetry=a1
              MO Center= -2.8D-16,  1.2D-14, -1.1D-01, r^2= 2.5D+00
   Bfn.  Coefficient  Atom+Function         Bfn.  Coefficient  Atom+Function  
  ----- ------------  ---------------      ----- ------------  ---------------
     6      4.936979  1 C  s                 21     -1.743597  2 O  s          
    36     -1.414811  3 N  s                 51     -1.414811  4 N  s          
    38      0.909321  3 N  py                53     -0.909321  4 N  py         
    24     -0.845136  2 O  pz                39      0.694058  3 N  pz         
    54      0.694058  4 N  pz                 9     -0.242695  1 C  pz         
 
 Vector   23  Occ=0.000000D+00  E= 3.989553D-01  Symmetry=a1
              MO Center= -1.5D-17,  3.6D-16, -1.2D-01, r^2= 3.3D+00
   Bfn.  Coefficient  Atom+Function         Bfn.  Coefficient  Atom+Function  
  ----- ------------  ---------------      ----- ------------  ---------------
     9      3.547552  1 C  pz                21      2.336368  2 O  s          
    36     -1.744368  3 N  s                 51     -1.744368  4 N  s          
    38      1.164578  3 N  py                53     -1.164578  4 N  py         
     6      1.109451  1 C  s                 24      0.861213  2 O  pz         
     5      0.389050  1 C  pz                39     -0.249754  3 N  pz         
 
 Vector   24  Occ=0.000000D+00  E= 5.097250D-01  Symmetry=b2
              MO Center=  1.3D-16, -1.3D-14,  1.1D-01, r^2= 2.7D+00
   Bfn.  Coefficient  Atom+Function         Bfn.  Coefficient  Atom+Function  
  ----- ------------  ---------------      ----- ------------  ---------------
     8      3.266374  1 C  py                36     -2.148409  3 N  s          
    51      2.148409  4 N  s                 39      1.254603  3 N  pz         
    54     -1.254603  4 N  pz                38      1.172862  3 N  py         
    53      1.172862  4 N  py                 4      0.777061  1 C  py         
    23     -0.603549  2 O  py                62     -0.359436  5 H  s          
 
 Vector   25  Occ=0.000000D+00  E= 5.397548D-01  Symmetry=b1
              MO Center=  1.2D-18, -1.8D-17, -7.4D-02, r^2= 2.2D+00
   Bfn.  Coefficient  Atom+Function         Bfn.  Coefficient  Atom+Function  
  ----- ------------  ---------------      ----- ------------  ---------------
     7      1.361218  1 C  px                 3     -0.952264  1 C  px         
    61     -0.186203  5 H  s                 63      0.186203  6 H  s          
    65     -0.186203  7 H  s                 67      0.186203  8 H  s          
    37     -0.168837  3 N  px                52     -0.168837  4 N  px         
    22     -0.145458  2 O  px                18     -0.115795  2 O  px         
 
 Vector   26  Occ=0.000000D+00  E= 5.661687D-01  Symmetry=a1
              MO Center=  1.6D-17, -2.1D-15,  6.3D-01, r^2= 2.2D+00
   Bfn.  Coefficient  Atom+Function         Bfn.  Coefficient  Atom+Function  
  ----- ------------  ---------------      ----- ------------  ---------------
     9      1.467187  1 C  pz                 2     -1.023759  1 C  s          
     6      0.968919  1 C  s                 21      0.614960  2 O  s          
     5     -0.518926  1 C  pz                39     -0.516661  3 N  pz         
    54     -0.516661  4 N  pz                36     -0.406085  3 N  s          
    51     -0.406085  4 N  s                 38     -0.236598  3 N  py         
 
 Vector   27  Occ=0.000000D+00  E= 5.968882D-01  Symmetry=b2
              MO Center= -1.3D-16,  5.0D-15, -4.2D-01, r^2= 2.5D+00
   Bfn.  Coefficient  Atom+Function         Bfn.  Coefficient  Atom+Function  
  ----- ------------  ---------------      ----- ------------  ---------------
     8      3.324928  1 C  py                36     -1.508003  3 N  s          
    51      1.508003  4 N  s                  4     -0.678021  1 C  py         
    39      0.488359  3 N  pz                54     -0.488359  4 N  pz         
    23     -0.471837  2 O  py                38      0.384105  3 N  py         
    53      0.384105  4 N  py                19     -0.260017  2 O  py         
 
 Vector   28  Occ=0.000000D+00  E= 6.248153D-01  Symmetry=a1
              MO Center= -9.4D-17, -1.1D-15, -3.5D-01, r^2= 2.4D+00
   Bfn.  Coefficient  Atom+Function         Bfn.  Coefficient  Atom+Function  
  ----- ------------  ---------------      ----- ------------  ---------------
     9      1.288209  1 C  pz                 2      0.714345  1 C  s          
    21      0.694872  2 O  s                  5     -0.500200  1 C  pz         
    20     -0.424222  2 O  pz                 6     -0.280294  1 C  s          
    36     -0.273169  3 N  s                 51     -0.273169  4 N  s          
    62     -0.265763  5 H  s                 64     -0.265763  6 H  s          
 
 Vector   29  Occ=0.000000D+00  E= 6.365647D-01  Symmetry=b2
              MO Center= -4.8D-15, -6.2D-15,  7.5D-01, r^2= 3.8D+00
   Bfn.  Coefficient  Atom+Function         Bfn.  Coefficient  Atom+Function  
  ----- ------------  ---------------      ----- ------------  ---------------
    38      0.622606  3 N  py                53      0.622606  4 N  py         
     8     -0.538209  1 C  py                34     -0.456849  3 N  py         
    49     -0.456849  4 N  py                62      0.454308  5 H  s          
    64      0.454308  6 H  s                 66     -0.454308  7 H  s          
    68     -0.454308  8 H  s                 39     -0.365425  3 N  pz         
 
 Vector   30  Occ=0.000000D+00  E= 6.922395D-01  Symmetry=a2
              MO Center=  4.6D-15,  1.9D-14,  1.1D+00, r^2= 4.0D+00
   Bfn.  Coefficient  Atom+Function         Bfn.  Coefficient  Atom+Function  
  ----- ------------  ---------------      ----- ------------  ---------------
    62      0.775906  5 H  s                 64     -0.775906  6 H  s          
    66     -0.775906  7 H  s                 68      0.775906  8 H  s          
    61     -0.556153  5 H  s                 63      0.556153  6 H  s          
    65      0.556153  7 H  s                 67     -0.556153  8 H  s          
    42     -0.271539  3 N  dxz               57      0.271539  4 N  dxz        
 
 Vector   31  Occ=0.000000D+00  E= 7.079964D-01  Symmetry=b1
              MO Center=  2.1D-15, -1.2D-14,  1.1D+00, r^2= 3.6D+00
   Bfn.  Coefficient  Atom+Function         Bfn.  Coefficient  Atom+Function  
  ----- ------------  ---------------      ----- ------------  ---------------
    62      0.759392  5 H  s                 64     -0.759392  6 H  s          
    66      0.759392  7 H  s                 68     -0.759392  8 H  s          
    61     -0.499293  5 H  s                 63      0.499293  6 H  s          
    65     -0.499293  7 H  s                 67      0.499293  8 H  s          
     7     -0.426542  1 C  px                33      0.383206  3 N  px         
 
 Vector   32  Occ=0.000000D+00  E= 7.250884D-01  Symmetry=a1
              MO Center= -8.7D-16,  4.1D-15,  2.3D-01, r^2= 3.0D+00
   Bfn.  Coefficient  Atom+Function         Bfn.  Coefficient  Atom+Function  
  ----- ------------  ---------------      ----- ------------  ---------------
     9      2.254521  1 C  pz                 6      2.142505  1 C  s          
    38      1.233405  3 N  py                53     -1.233405  4 N  py         
    36     -1.183831  3 N  s                 51     -1.183831  4 N  s          
    21      0.626253  2 O  s                 34     -0.611301  3 N  py         
    49      0.611301  4 N  py                 5     -0.568297  1 C  pz         
 
 Vector   33  Occ=0.000000D+00  E= 7.501118D-01  Symmetry=a1
              MO Center= -1.3D-15,  1.1D-14,  8.8D-01, r^2= 3.4D+00
   Bfn.  Coefficient  Atom+Function         Bfn.  Coefficient  Atom+Function  
  ----- ------------  ---------------      ----- ------------  ---------------
     6      1.415831  1 C  s                  2     -0.719534  1 C  s          
    62     -0.585181  5 H  s                 64     -0.585181  6 H  s          
    66     -0.585181  7 H  s                 68     -0.585181  8 H  s          
    39      0.483270  3 N  pz                54      0.483270  4 N  pz         
    32     -0.443367  3 N  s                 47     -0.443367  4 N  s          
 
 Vector   34  Occ=0.000000D+00  E= 8.208366D-01  Symmetry=a2
              MO Center=  6.1D-15,  1.8D-15,  5.8D-01, r^2= 3.5D+00
   Bfn.  Coefficient  Atom+Function         Bfn.  Coefficient  Atom+Function  
  ----- ------------  ---------------      ----- ------------  ---------------
    37      1.166356  3 N  px                52     -1.166356  4 N  px         
    62     -0.785911  5 H  s                 64      0.785911  6 H  s          
    66      0.785911  7 H  s                 68     -0.785911  8 H  s          
    33     -0.695821  3 N  px                48      0.695821  4 N  px         
    61      0.154304  5 H  s                 63     -0.154304  6 H  s          
 
 Vector   35  Occ=0.000000D+00  E= 8.275284D-01  Symmetry=b2
              MO Center= -6.0D-15,  4.2D-16,  9.6D-01, r^2= 3.7D+00
   Bfn.  Coefficient  Atom+Function         Bfn.  Coefficient  Atom+Function  
  ----- ------------  ---------------      ----- ------------  ---------------
    39      1.036227  3 N  pz                54     -1.036227  4 N  pz         
     8      0.857494  1 C  py                38      0.826319  3 N  py         
    53      0.826319  4 N  py                62     -0.764921  5 H  s          
    64     -0.764921  6 H  s                 66      0.764921  7 H  s          
    68      0.764921  8 H  s                 35     -0.499628  3 N  pz         
 
 Vector   36  Occ=0.000000D+00  E= 8.723397D-01  Symmetry=a1
              MO Center=  4.2D-17, -1.1D-14, -1.2D+00, r^2= 2.7D+00
   Bfn.  Coefficient  Atom+Function         Bfn.  Coefficient  Atom+Function  
  ----- ------------  ---------------      ----- ------------  ---------------
     6      2.249198  1 C  s                 24     -1.298425  2 O  pz         
    39      0.693084  3 N  pz                54      0.693084  4 N  pz         
    20      0.606406  2 O  pz                36     -0.574675  3 N  s          
    51     -0.574675  4 N  s                 38      0.464693  3 N  py         
    53     -0.464693  4 N  py                 5     -0.410182  1 C  pz         
 
 Vector   37  Occ=0.000000D+00  E= 9.092256D-01  Symmetry=b1
              MO Center=  9.5D-16, -9.6D-15,  1.9D-01, r^2= 3.5D+00
   Bfn.  Coefficient  Atom+Function         Bfn.  Coefficient  Atom+Function  
  ----- ------------  ---------------      ----- ------------  ---------------
    37      1.398992  3 N  px                52      1.398992  4 N  px         
     7     -1.159148  1 C  px                33     -0.593319  3 N  px         
    48     -0.593319  4 N  px                18      0.269417  2 O  px         
    61     -0.237077  5 H  s                 63      0.237077  6 H  s          
    65     -0.237077  7 H  s                 67      0.237077  8 H  s          
 
 Vector   38  Occ=0.000000D+00  E= 9.462669D-01  Symmetry=a1
              MO Center= -8.2D-16, -1.2D-14, -3.0D-01, r^2= 3.2D+00
   Bfn.  Coefficient  Atom+Function         Bfn.  Coefficient  Atom+Function  
  ----- ------------  ---------------      ----- ------------  ---------------
     6      4.573631  1 C  s                 36     -1.988818  3 N  s          
    51     -1.988818  4 N  s                 21     -1.890855  2 O  s          
    39      1.181374  3 N  pz                54      1.181374  4 N  pz         
     2     -0.828091  1 C  s                 38      0.757752  3 N  py         
    53     -0.757752  4 N  py                32      0.589561  3 N  s          
 
 Vector   39  Occ=0.000000D+00  E= 1.027605D+00  Symmetry=b1
              MO Center= -5.8D-16,  2.9D-17, -1.2D+00, r^2= 2.1D+00
   Bfn.  Coefficient  Atom+Function         Bfn.  Coefficient  Atom+Function  
  ----- ------------  ---------------      ----- ------------  ---------------
    22      1.369325  2 O  px                 7     -1.219744  1 C  px         
    18     -0.884223  2 O  px                37      0.505867  3 N  px         
    52      0.505867  4 N  px                 3      0.221947  1 C  px         
    42     -0.128136  3 N  dxz               57     -0.128136  4 N  dxz        
    61     -0.119877  5 H  s                 63      0.119877  6 H  s          
 
 Vector   40  Occ=0.000000D+00  E= 1.041275D+00  Symmetry=b2
              MO Center= -2.6D-16,  4.5D-15, -7.7D-01, r^2= 3.0D+00
   Bfn.  Coefficient  Atom+Function         Bfn.  Coefficient  Atom+Function  
  ----- ------------  ---------------      ----- ------------  ---------------
    36      1.738095  3 N  s                 51     -1.738095  4 N  s          
     8     -1.548962  1 C  py                39     -1.044485  3 N  pz         
    54      1.044485  4 N  pz                23     -0.767553  2 O  py         
    19      0.643319  2 O  py                32     -0.489491  3 N  s          
    47      0.489491  4 N  s                 38     -0.335317  3 N  py         
 
 Vector   41  Occ=0.000000D+00  E= 1.150029D+00  Symmetry=b2
              MO Center= -6.5D-16, -3.2D-14, -3.0D-01, r^2= 3.9D+00
   Bfn.  Coefficient  Atom+Function         Bfn.  Coefficient  Atom+Function  
  ----- ------------  ---------------      ----- ------------  ---------------
     8      5.881578  1 C  py                36     -3.617019  3 N  s          
    51      3.617019  4 N  s                 39      2.183656  3 N  pz         
    54     -2.183656  4 N  pz                23     -1.690478  2 O  py         
    38      0.799238  3 N  py                53      0.799238  4 N  py         
    19      0.565941  2 O  py                35     -0.357982  3 N  pz         
 
 Vector   42  Occ=0.000000D+00  E= 1.153241D+00  Symmetry=a1
              MO Center=  4.8D-16,  2.0D-14,  6.0D-01, r^2= 2.6D+00
   Bfn.  Coefficient  Atom+Function         Bfn.  Coefficient  Atom+Function  
  ----- ------------  ---------------      ----- ------------  ---------------
     6      3.158506  1 C  s                 36     -2.856199  3 N  s          
    51     -2.856199  4 N  s                 21     -1.135148  2 O  s          
     9      1.067968  1 C  pz                32      0.774762  3 N  s          
    47      0.774762  4 N  s                 24     -0.744117  2 O  pz         
    38      0.683694  3 N  py                53     -0.683694  4 N  py         
 
 Vector   43  Occ=0.000000D+00  E= 1.384910D+00  Symmetry=b1
              MO Center=  6.3D-18,  4.5D-16, -3.4D-01, r^2= 1.5D+00
   Bfn.  Coefficient  Atom+Function         Bfn.  Coefficient  Atom+Function  
  ----- ------------  ---------------      ----- ------------  ---------------
    12      1.026704  1 C  dxz               27     -0.649000  2 O  dxz        
    41     -0.543850  3 N  dxy               56      0.543850  4 N  dxy        
     7     -0.263071  1 C  px                22      0.233483  2 O  px         
    37      0.182139  3 N  px                52      0.182139  4 N  px         
    33     -0.133896  3 N  px                48     -0.133896  4 N  px         
 
 Vector   44  Occ=0.000000D+00  E= 1.405960D+00  Symmetry=a2
              MO Center=  4.3D-17, -1.2D-16,  1.2D-01, r^2= 1.6D+00
   Bfn.  Coefficient  Atom+Function         Bfn.  Coefficient  Atom+Function  
  ----- ------------  ---------------      ----- ------------  ---------------
    11      0.997724  1 C  dxy               41     -0.687150  3 N  dxy        
    56     -0.687150  4 N  dxy               26      0.364867  2 O  dxy        
    42     -0.225885  3 N  dxz               57      0.225885  4 N  dxz        
    37     -0.213754  3 N  px                52      0.213754  4 N  px         
    61      0.145367  5 H  s                 63     -0.145367  6 H  s          
 
 Vector   45  Occ=0.000000D+00  E= 1.591609D+00  Symmetry=b2
              MO Center= -8.3D-17, -1.2D-15,  2.8D-01, r^2= 2.0D+00
   Bfn.  Coefficient  Atom+Function         Bfn.  Coefficient  Atom+Function  
  ----- ------------  ---------------      ----- ------------  ---------------
    36      1.469757  3 N  s                 51     -1.469757  4 N  s          
    32     -0.625178  3 N  s                 47      0.625178  4 N  s          
    45     -0.581250  3 N  dzz               60      0.581250  4 N  dzz        
     8     -0.543182  1 C  py                38     -0.502985  3 N  py         
    53     -0.502985  4 N  py                29     -0.367768  2 O  dyz        
 
 Vector   46  Occ=0.000000D+00  E= 1.692630D+00  Symmetry=a1
              MO Center= -1.5D-16,  1.0D-14, -7.1D-01, r^2= 2.5D+00
   Bfn.  Coefficient  Atom+Function         Bfn.  Coefficient  Atom+Function  
  ----- ------------  ---------------      ----- ------------  ---------------
    21      6.389930  2 O  s                  9      4.867772  1 C  pz         
    36     -2.277571  3 N  s                 51     -2.277571  4 N  s          
    24      1.718115  2 O  pz                17     -1.691452  2 O  s          
    38      1.114115  3 N  py                53     -1.114115  4 N  py         
    30     -0.626726  2 O  dzz               39     -0.434607  3 N  pz         
 
 Vector   47  Occ=0.000000D+00  E= 1.744761D+00  Symmetry=a1
              MO Center=  1.1D-17,  7.3D-16, -6.6D-01, r^2= 1.7D+00
   Bfn.  Coefficient  Atom+Function         Bfn.  Coefficient  Atom+Function  
  ----- ------------  ---------------      ----- ------------  ---------------
     6      2.115330  1 C  s                 21     -1.472202  2 O  s          
    28      0.675797  2 O  dyy               17      0.597349  2 O  s          
    24     -0.596791  2 O  pz                25     -0.513801  2 O  dxx        
    44      0.401590  3 N  dyz               59     -0.401590  4 N  dyz        
    36     -0.359487  3 N  s                 51     -0.359487  4 N  s          
 
 Vector   48  Occ=0.000000D+00  E= 1.767244D+00  Symmetry=b2
              MO Center=  1.3D-16,  5.1D-15,  6.6D-01, r^2= 2.2D+00
   Bfn.  Coefficient  Atom+Function         Bfn.  Coefficient  Atom+Function  
  ----- ------------  ---------------      ----- ------------  ---------------
    36      3.565882  3 N  s                 51     -3.565882  4 N  s          
     8     -2.554475  1 C  py                32     -1.055382  3 N  s          
    38     -1.057642  3 N  py                47      1.055382  4 N  s          
    53     -1.057642  4 N  py                23      0.662348  2 O  py         
    44     -0.579377  3 N  dyz               59     -0.579377  4 N  dyz        
 
 Vector   49  Occ=0.000000D+00  E= 1.811513D+00  Symmetry=a1
              MO Center=  6.2D-17,  4.0D-15,  4.5D-01, r^2= 2.3D+00
   Bfn.  Coefficient  Atom+Function         Bfn.  Coefficient  Atom+Function  
  ----- ------------  ---------------      ----- ------------  ---------------
     6      3.881139  1 C  s                 36     -3.066920  3 N  s          
    51     -3.066920  4 N  s                  9      2.554466  1 C  pz         
    38      1.184369  3 N  py                53     -1.184369  4 N  py         
    21      0.900114  2 O  s                 32      0.616511  3 N  s          
    47      0.616511  4 N  s                 45      0.506839  3 N  dzz        
 
 Vector   50  Occ=0.000000D+00  E= 1.819285D+00  Symmetry=a2
              MO Center=  8.1D-17,  3.2D-16, -1.1D+00, r^2= 1.3D+00
   Bfn.  Coefficient  Atom+Function         Bfn.  Coefficient  Atom+Function  
  ----- ------------  ---------------      ----- ------------  ---------------
    26      1.579985  2 O  dxy               41      0.515719  3 N  dxy        
    56      0.515719  4 N  dxy               37     -0.218459  3 N  px         
    52      0.218459  4 N  px                11      0.158260  1 C  dxy        
    33      0.087973  3 N  px                48     -0.087973  4 N  px         
    62      0.071672  5 H  s                 64     -0.071672  6 H  s          
 
 Vector   51  Occ=0.000000D+00  E= 1.939633D+00  Symmetry=b2
              MO Center=  1.8D-17, -6.2D-15,  2.0D-01, r^2= 2.1D+00
   Bfn.  Coefficient  Atom+Function         Bfn.  Coefficient  Atom+Function  
  ----- ------------  ---------------      ----- ------------  ---------------
     8      2.675064  1 C  py                36     -2.079174  3 N  s          
    51      2.079174  4 N  s                 14      0.831919  1 C  dyz        
    23     -0.735586  2 O  py                43      0.485196  3 N  dyy        
    58     -0.485196  4 N  dyy               44     -0.449275  3 N  dyz        
    59     -0.449275  4 N  dyz               29     -0.434667  2 O  dyz        
 
 Vector   52  Occ=0.000000D+00  E= 1.991808D+00  Symmetry=a1
              MO Center=  2.5D-17, -2.9D-14, -3.2D-01, r^2= 2.1D+00
   Bfn.  Coefficient  Atom+Function         Bfn.  Coefficient  Atom+Function  
  ----- ------------  ---------------      ----- ------------  ---------------
     6      2.016645  1 C  s                 36     -1.228253  3 N  s          
    51     -1.228253  4 N  s                 25     -0.508547  2 O  dxx        
    28      0.499839  2 O  dyy               32      0.467860  3 N  s          
    47      0.467860  4 N  s                 21     -0.429347  2 O  s          
    20     -0.403989  2 O  pz                43      0.379834  3 N  dyy        
 
 Vector   53  Occ=0.000000D+00  E= 2.010790D+00  Symmetry=a2
              MO Center= -1.5D-16,  6.1D-14,  4.0D-01, r^2= 2.1D+00
   Bfn.  Coefficient  Atom+Function         Bfn.  Coefficient  Atom+Function  
  ----- ------------  ---------------      ----- ------------  ---------------
    42      1.001549  3 N  dxz               57     -1.001549  4 N  dxz        
    41     -0.675318  3 N  dxy               56     -0.675318  4 N  dxy        
    11     -0.535976  1 C  dxy               26      0.435779  2 O  dxy        
    61     -0.346624  5 H  s                 63      0.346624  6 H  s          
    65      0.346624  7 H  s                 67     -0.346624  8 H  s          
 
 Vector   54  Occ=0.000000D+00  E= 2.033404D+00  Symmetry=b1
              MO Center= -9.3D-17, -6.1D-14,  2.5D-01, r^2= 2.3D+00
   Bfn.  Coefficient  Atom+Function         Bfn.  Coefficient  Atom+Function  
  ----- ------------  ---------------      ----- ------------  ---------------
    42      1.103927  3 N  dxz               57      1.103927  4 N  dxz        
    27      0.770285  2 O  dxz                7     -0.573755  1 C  px         
    37      0.464152  3 N  px                52      0.464152  4 N  px         
    41     -0.399094  3 N  dxy               56      0.399094  4 N  dxy        
    61     -0.365197  5 H  s                 63      0.365197  6 H  s          
 
 Vector   55  Occ=0.000000D+00  E= 2.033775D+00  Symmetry=b2
              MO Center=  1.7D-16,  3.2D-14, -5.3D-01, r^2= 2.0D+00
   Bfn.  Coefficient  Atom+Function         Bfn.  Coefficient  Atom+Function  
  ----- ------------  ---------------      ----- ------------  ---------------
    29      1.286094  2 O  dyz               36     -0.861473  3 N  s          
    51      0.861473  4 N  s                 32      0.445687  3 N  s          
    47     -0.445687  4 N  s                 45     -0.395217  3 N  dzz        
    60      0.395217  4 N  dzz                8      0.342662  1 C  py         
    43      0.324312  3 N  dyy               58     -0.324312  4 N  dyy        
 
 Vector   56  Occ=0.000000D+00  E= 2.110540D+00  Symmetry=b1
              MO Center=  1.6D-17, -2.8D-16,  6.8D-02, r^2= 2.2D+00
   Bfn.  Coefficient  Atom+Function         Bfn.  Coefficient  Atom+Function  
  ----- ------------  ---------------      ----- ------------  ---------------
    41      1.011271  3 N  dxy               56     -1.011271  4 N  dxy        
    27     -0.879620  2 O  dxz               42      0.702584  3 N  dxz        
    57      0.702584  4 N  dxz                7      0.598485  1 C  px         
     3      0.391034  1 C  px                37     -0.335946  3 N  px         
    52     -0.335946  4 N  px                22     -0.327203  2 O  px         
 
 Vector   57  Occ=0.000000D+00  E= 2.228390D+00  Symmetry=a1
              MO Center= -2.3D-17, -2.6D-15, -1.9D-01, r^2= 1.4D+00
   Bfn.  Coefficient  Atom+Function         Bfn.  Coefficient  Atom+Function  
  ----- ------------  ---------------      ----- ------------  ---------------
    10      1.042225  1 C  dxx                6     -0.766564  1 C  s          
    44     -0.543163  3 N  dyz               59      0.543163  4 N  dyz        
    28      0.424181  2 O  dyy               25     -0.311950  2 O  dxx        
     2      0.258325  1 C  s                 15     -0.256686  1 C  dzz        
    13     -0.237736  1 C  dyy               20      0.226455  2 O  pz         
 
 Vector   58  Occ=0.000000D+00  E= 2.615675D+00  Symmetry=a2
              MO Center= -5.1D-17, -2.2D-15,  9.3D-02, r^2= 1.7D+00
   Bfn.  Coefficient  Atom+Function         Bfn.  Coefficient  Atom+Function  
  ----- ------------  ---------------      ----- ------------  ---------------
    11      1.725934  1 C  dxy               42      0.914491  3 N  dxz        
    57     -0.914491  4 N  dxz               41      0.775126  3 N  dxy        
    56      0.775126  4 N  dxy               26     -0.479716  2 O  dxy        
    61     -0.167253  5 H  s                 63      0.167253  6 H  s          
    65      0.167253  7 H  s                 67     -0.167253  8 H  s          
 
 Vector   59  Occ=0.000000D+00  E= 2.619985D+00  Symmetry=b2
              MO Center=  1.9D-16, -3.4D-15,  3.3D-01, r^2= 2.4D+00
   Bfn.  Coefficient  Atom+Function         Bfn.  Coefficient  Atom+Function  
  ----- ------------  ---------------      ----- ------------  ---------------
    36     -3.714666  3 N  s                 51      3.714666  4 N  s          
     8      3.694834  1 C  py                38      1.456325  3 N  py         
    53      1.456325  4 N  py                39      1.330801  3 N  pz         
    54     -1.330801  4 N  pz                44     -1.272096  3 N  dyz        
    59     -1.272096  4 N  dyz                4      1.186922  1 C  py         
 
 Vector   60  Occ=0.000000D+00  E= 2.649085D+00  Symmetry=a1
              MO Center= -6.6D-18, -2.0D-15,  3.0D-01, r^2= 2.2D+00
   Bfn.  Coefficient  Atom+Function         Bfn.  Coefficient  Atom+Function  
  ----- ------------  ---------------      ----- ------------  ---------------
     6      3.220325  1 C  s                 36     -2.308531  3 N  s          
    51     -2.308531  4 N  s                  9      1.456899  1 C  pz         
    38      1.231769  3 N  py                53     -1.231769  4 N  py         
    44     -0.950026  3 N  dyz               59      0.950026  4 N  dyz        
     2      0.731774  1 C  s                 10     -0.683071  1 C  dxx        
 
 Vector   61  Occ=0.000000D+00  E= 2.681783D+00  Symmetry=b1
              MO Center=  5.3D-18,  2.1D-15, -5.3D-01, r^2= 1.5D+00
   Bfn.  Coefficient  Atom+Function         Bfn.  Coefficient  Atom+Function  
  ----- ------------  ---------------      ----- ------------  ---------------
    12      1.865046  1 C  dxz               27      1.547046  2 O  dxz        
    41      0.615128  3 N  dxy               56     -0.615128  4 N  dxy        
    22      0.346821  2 O  px                37     -0.184353  3 N  px         
    52     -0.184353  4 N  px                42     -0.142542  3 N  dxz        
    57     -0.142542  4 N  dxz                3     -0.127124  1 C  px         
 
 Vector   62  Occ=0.000000D+00  E= 2.917175D+00  Symmetry=a1
              MO Center=  5.1D-18,  7.4D-16, -1.0D+00, r^2= 1.5D+00
   Bfn.  Coefficient  Atom+Function         Bfn.  Coefficient  Atom+Function  
  ----- ------------  ---------------      ----- ------------  ---------------
    21      3.390619  2 O  s                 24      1.810200  2 O  pz         
     6     -1.666719  1 C  s                  9      1.550356  1 C  pz         
     2     -1.419260  1 C  s                 30      1.247954  2 O  dzz        
    17     -1.092312  2 O  s                  5      0.935835  1 C  pz         
    44      0.585134  3 N  dyz               59     -0.585134  4 N  dyz        
 
 Vector   63  Occ=0.000000D+00  E= 3.055510D+00  Symmetry=a1
              MO Center=  2.4D-18, -2.7D-17, -2.4D-01, r^2= 1.7D+00
   Bfn.  Coefficient  Atom+Function         Bfn.  Coefficient  Atom+Function  
  ----- ------------  ---------------      ----- ------------  ---------------
    15      1.278522  1 C  dzz               13     -1.150423  1 C  dyy        
    30     -0.959586  2 O  dzz                5     -0.886277  1 C  pz         
    44      0.809324  3 N  dyz               59     -0.809324  4 N  dyz        
    24     -0.648386  2 O  pz                20     -0.493706  2 O  pz         
    21     -0.473016  2 O  s                  2      0.429948  1 C  s          
 
 Vector   64  Occ=0.000000D+00  E= 3.172662D+00  Symmetry=b2
              MO Center= -1.5D-17,  7.3D-16, -3.8D-01, r^2= 1.6D+00
   Bfn.  Coefficient  Atom+Function         Bfn.  Coefficient  Atom+Function  
  ----- ------------  ---------------      ----- ------------  ---------------
    14      2.452255  1 C  dyz               29      1.514548  2 O  dyz        
     8     -1.376234  1 C  py                36      0.751358  3 N  s          
    51     -0.751358  4 N  s                 23      0.674540  2 O  py         
    43     -0.511038  3 N  dyy               58      0.511038  4 N  dyy        
    32     -0.453400  3 N  s                 47      0.453400  4 N  s          
 
 Vector   65  Occ=0.000000D+00  E= 3.718091D+00  Symmetry=a1
              MO Center=  5.1D-17, -2.2D-15,  3.5D-01, r^2= 2.4D+00
   Bfn.  Coefficient  Atom+Function         Bfn.  Coefficient  Atom+Function  
  ----- ------------  ---------------      ----- ------------  ---------------
    36      2.550642  3 N  s                 51      2.550642  4 N  s          
     6     -2.119622  1 C  s                 21      1.278159  2 O  s          
    43     -1.117631  3 N  dyy               58     -1.117631  4 N  dyy        
    45     -1.046070  3 N  dzz               60     -1.046070  4 N  dzz        
     2      0.937086  1 C  s                 40     -0.917953  3 N  dxx        
 
 Vector   66  Occ=0.000000D+00  E= 3.932313D+00  Symmetry=b2
              MO Center= -4.1D-17,  5.1D-15,  4.9D-01, r^2= 2.5D+00
   Bfn.  Coefficient  Atom+Function         Bfn.  Coefficient  Atom+Function  
  ----- ------------  ---------------      ----- ------------  ---------------
    36      5.011222  3 N  s                 51     -5.011222  4 N  s          
     8     -3.087940  1 C  py                43     -1.285111  3 N  dyy        
    58      1.285111  4 N  dyy               40     -1.260332  3 N  dxx        
    55      1.260332  4 N  dxx               45     -1.095092  3 N  dzz        
    60      1.095092  4 N  dzz               38     -1.053009  3 N  py         
 
 Vector   67  Occ=0.000000D+00  E= 4.028273D+00  Symmetry=a1
              MO Center= -2.0D-17,  1.6D-15, -9.9D-01, r^2= 1.5D+00
   Bfn.  Coefficient  Atom+Function         Bfn.  Coefficient  Atom+Function  
  ----- ------------  ---------------      ----- ------------  ---------------
    21      6.567479  2 O  s                  9      3.016077  1 C  pz         
     2     -1.770037  1 C  s                 25     -1.660766  2 O  dxx        
    28     -1.665071  2 O  dyy               36     -1.589499  3 N  s          
    51     -1.589499  4 N  s                 30     -1.550583  2 O  dzz        
    24      1.331687  2 O  pz                15      1.307192  1 C  dzz        
 
 Vector   68  Occ=0.000000D+00  E= 4.275939D+00  Symmetry=a1
              MO Center= -1.0D-16, -9.8D-16, -2.7D-01, r^2= 1.5D+00
   Bfn.  Coefficient  Atom+Function         Bfn.  Coefficient  Atom+Function  
  ----- ------------  ---------------      ----- ------------  ---------------
    21      5.314939  2 O  s                  9      2.940231  1 C  pz         
    36     -2.050173  3 N  s                 51     -2.050173  4 N  s          
     2      2.032721  1 C  s                 13     -1.979272  1 C  dyy        
    15     -1.786941  1 C  dzz               24      1.624131  2 O  pz         
    10     -1.308338  1 C  dxx               25     -1.215211  2 O  dxx        
 

 center of mass
 --------------
 x =   0.00000000 y =   0.00000000 z =  -0.16865385

 moments of inertia (a.u.)
 ------------------
         298.473905123002           0.000000000000           0.000000000000
           0.000000000000         165.985609892661           0.000000000000
           0.000000000000           0.000000000000         151.378767844189
 
     Multipole analysis of the density
     ---------------------------------
 
     L   x y z        total         alpha         beta         nuclear
     -   - - -        -----         -----         ----         -------
     0   0 0 0     -0.000000    -16.000000    -16.000000     32.000000
 
     1   1 0 0      0.000000      0.000000      0.000000      0.000000
     1   0 1 0      0.000000      0.000000      0.000000      0.000000
     1   0 0 1      2.217233      1.108616      1.108616      0.000000
 
     2   2 0 0    -15.646939    -12.509420    -12.509420      9.371901
     2   1 1 0      0.000000      0.000000      0.000000      0.000000
     2   1 0 1     -0.000000     -0.000000     -0.000000      0.000000
     2   0 2 0    -21.550719    -50.856628    -50.856628     80.162537
     2   0 1 1     -0.000000     -0.000000     -0.000000      0.000000
     2   0 0 2    -15.715083    -53.908201    -53.908201     92.101320
 

 Parallel integral file used      31 records with       0 large values

 
            General Information
            -------------------
          SCF calculation type: DFT
          Wavefunction type:  closed shell.
          No. of atoms     :     8
          No. of electrons :    32
           Alpha electrons :    16
            Beta electrons :    16
          Charge           :     0
          Spin multiplicity:     1
          Use of symmetry is: on ; symmetry adaption is: on 
          Maximum number of iterations:  50
          AO basis - number of functions:    68
                     number of shells:    32
          Convergence on energy requested:  1.00D-06
          Convergence on density requested:  1.00D-05
          Convergence on gradient requested:  5.00D-04
 
              XC Information
              --------------
                         B3LYP Method XC Potential
                     Hartree-Fock (Exact) Exchange  0.200          
                        Slater Exchange Functional  0.800 local    
                    Becke 1988 Exchange Functional  0.720 non-local
              Lee-Yang-Parr Correlation Functional  0.810          
                  VWN I RPA Correlation Functional  0.190 local    
 
             Grid Information
             ----------------
          Grid used for XC integration:  xfine     
          Radial quadrature: Mura-Knowles        
          Angular quadrature: Lebedev. 
          Tag              B.-S. Rad. Rad. Pts. Rad. Cut. Ang. Pts.
          ---              ---------- --------- --------- ---------
          C                   0.70      100           7.0      1454
          O                   0.60      100           9.0      1454
          N                   0.65      100           8.0      1454
          H                   0.35      100           8.0      1202
          Grid pruning is: on 
          Number of quadrature shells:   400
          Spatial weights used:  Erf1
 
          Convergence Information
          -----------------------
          Convergence aids based upon iterative change in 
          total energy or number of iterations. 
          Levelshifting, if invoked, occurs when the 
          HOMO/LUMO gap drops below (HL_TOL):  1.00D-02
          DIIS, if invoked, will attempt to extrapolate 
          using up to (NFOCK): 10 stored Fock matrices.

                    Damping( 0%)  Levelshifting(0.5)       DIIS
                  --------------- ------------------- ---------------
          dE  on:    start            ASAP                start   
          dE off:    2 iters         50 iters            50 iters 

 
      Screening Tolerance Information
      -------------------------------
          Density screening/tol_rho:  1.00D-10
          AO Gaussian exp screening on grid/accAOfunc:  14
          CD Gaussian exp screening on grid/accCDfunc:  20
          XC Gaussian exp screening on grid/accXCfunc:  20
          Schwarz screening/accCoul:  1.00D-08

 
 
                            NWChem DFT Gradient Module
                            --------------------------
 
 
                           urea opt+freq (B3LYP/6-31g*)
 
 

  charge          =   0.00
  wavefunction    = closed shell

  Using symmetry


                         DFT ENERGY GRADIENTS

    atom               coordinates                        gradient
                 x          y          z           x          y          z
   1 C       0.000000   0.000000  -0.316529    0.000000   0.000000   0.103926
   2 O       0.000000   0.000000  -2.603098    0.000000   0.000000   0.025812
   3 N       0.000000   2.097596   0.892896    0.000000  -0.176772  -0.195825
   4 N       0.000000  -2.097596   0.892896    0.000000   0.176772  -0.195825
   5 H       1.530678   2.154288   2.555854    0.036766   0.005353   0.065478
   6 H      -1.530678   2.154288   2.555854   -0.036766   0.005353   0.065478
   7 H       1.530678  -2.154288   2.555854    0.036766  -0.005353   0.065478
   8 H      -1.530678  -2.154288   2.555854   -0.036766  -0.005353   0.065478
 
                 ----------------------------------------
                 |  Time  |  1-e(secs)   |  2-e(secs)   |
                 ----------------------------------------
                 |  CPU   |       0.00   |       0.06   |
                 ----------------------------------------
                 |  WALL  |       0.00   |       0.06   |
                 ----------------------------------------
  no constraints, skipping   0.000000000000000E+000

@ Step       Energy      Delta E   Gmax     Grms     Xrms     Xmax   Walltime
@ ---- ---------------- -------- -------- -------- -------- -------- --------
@    0    -225.08566832  0.0D+00  0.17627  0.05963  0.00000  0.00000     20.6
                                                                    



                                Z-matrix (autoz)
                                -------- 

 Units are Angstrom for bonds and degrees for angles
 
      Type          Name      I     J     K     L     M      Value     Gradient
      ----------- --------  ----- ----- ----- ----- ----- ---------- ----------
    1 Stretch                  1     2                       1.21000   -0.02581
    2 Stretch                  1     3                       1.28129   -0.17627
    3 Stretch                  1     4                       1.28129   -0.17627
    4 Stretch                  3     5                       1.19641    0.07319
    5 Stretch                  3     6                       1.19641    0.07319
    6 Stretch                  4     7                       1.19641    0.07319
    7 Stretch                  4     8                       1.19641    0.07319
    8 Bend                     1     3     5               112.89973    0.00714
    9 Bend                     1     3     6               112.89973    0.00714
   10 Bend                     1     4     7               112.89973    0.00714
   11 Bend                     1     4     8               112.89973    0.00714
   12 Bend                     2     1     3               119.96674    0.00959
   13 Bend                     2     1     4               119.96674    0.00959
   14 Bend                     3     1     4               120.06652   -0.01919
   15 Bend                     5     3     6                85.22316   -0.01127
   16 Bend                     7     4     8                85.22316   -0.01127
   17 Torsion                  2     1     3     5        -132.69718   -0.00337
   18 Torsion                  2     1     3     6         132.69718    0.00337
   19 Torsion                  2     1     4     7         132.69718    0.00337
   20 Torsion                  2     1     4     8        -132.69718   -0.00337
   21 Torsion                  3     1     4     7         -47.30282    0.00337
   22 Torsion                  3     1     4     8          47.30282   -0.00337
   23 Torsion                  4     1     3     5          47.30282   -0.00337
   24 Torsion                  4     1     3     6         -47.30282    0.00337
 
 Restricting large step in mode    1 eval= 1.4D-02 step= 4.5D-01 new= 3.0D-01
 Restricting large step in mode    6 eval= 4.5D-02 step=-9.6D-01 new=-3.0D-01
 Restricting large step in mode   15 eval= 3.2D-01 step= 7.7D-01 new= 3.0D-01
 Restricting large step in mode   16 eval= 4.3D-01 step=-3.1D-01 new=-3.0D-01
  no constraints, skipping   0.000000000000000E+000
  no constraints, skipping   0.000000000000000E+000
  no constraints, skipping   0.000000000000000E+000
  no constraints, skipping   0.000000000000000E+000
  no constraints, skipping   0.000000000000000E+000
  no constraints, skipping   0.000000000000000E+000
  no constraints, skipping   0.000000000000000E+000
  no constraints, skipping   0.000000000000000E+000
 
                                 NWChem DFT Module
                                 -----------------
 
 
                           urea opt+freq (B3LYP/6-31g*)
 
 


 Summary of "ao basis" -> "ao basis" (cartesian)
 ------------------------------------------------------------------------------
       Tag                 Description            Shells   Functions and Types
 ---------------- ------------------------------  ------  ---------------------
 C                           6-31g*                  6       15   3s2p1d
 O                           6-31g*                  6       15   3s2p1d
 N                           6-31g*                  6       15   3s2p1d
 H                           6-31g*                  2        2   2s


      Symmetry analysis of basis
      --------------------------
 
        a1         29
[...]
   10      587.680 ||    0.016649           0.384        16.230       3.448
   11      615.488 ||    0.002639           0.061         2.572       0.546
   12      830.519 ||    0.284972           6.575       277.805      59.018
   13      830.556 ||    0.009463           0.218         9.225       1.960
   14      995.154 ||    0.004554           0.105         4.439       0.943
   15     1045.918 ||    0.000000           0.000         0.000       0.000
   16     1107.637 ||    0.328488           7.578       320.227      68.031
   17     1303.805 ||    0.001328           0.031         1.295       0.275
   18     1648.703 ||    0.014620           0.337        14.253       3.028
   19     1659.298 ||    0.125808           2.903       122.644      26.055
   20     1887.183 ||    0.198481           4.579       193.489      41.106
   21     3421.921 ||    0.004765           0.110         4.645       0.987
   22     3431.198 ||    0.000937           0.022         0.914       0.194
   23     3504.499 ||    0.000000           0.000         0.000       0.000
   24     3508.727 ||    0.004524           0.104         4.410       0.937
 ----------------------------------------------------------------------------






 ===============================================================================
      Negative Nuclear Hessian Mode    1  Eigenvalue =   -464.74 cm**(-1)
 -------------------------------------------------------------------------------
   Raw step length:  0.526 angstroms ;  The Raw step for this mode is:
    1 C                    6.0000     0.00000001    -0.00000000     0.00000000
    2 O                    8.0000    -0.00000002    -0.00000001     0.00000000
    3 N                    7.0000    -0.00748227    -0.00000000     0.00000001
    4 N                    7.0000     0.00748231     0.00000000    -0.00000001
    5 H                    1.0000     0.13450839     0.12931406    -0.18509446
    6 H                    1.0000     0.13450833    -0.12931399     0.18509445
    7 H                    1.0000    -0.13450853     0.12931419     0.18509470
    8 H                    1.0000    -0.13450847    -0.12931412    -0.18509469


  Geometry after  100.0% step for mode  1; Step length =  0.526 angstroms 
   Maximum component (any atom: x,y, or z) displacement:  0.350
    1 C                    6.0000     0.00000001    -0.00000000    -0.11920387
    2 O                    8.0000    -0.00000002    -0.00000001    -1.31802421
    3 N                    7.0000    -0.00748227     1.25256831     0.62415112
    4 N                    7.0000     0.00748231    -1.25256830     0.62415110
    5 H                    1.0000     0.94345672     1.39107780     1.06463701
    6 H                    1.0000    -0.67444000     1.13244975     1.43482592
    7 H                    1.0000     0.67443981    -1.13244955     1.43482616
    8 H                    1.0000    -0.94345681    -1.39107786     1.06463677


  Geometry after -100.0% step for mode  1; Step length =  0.526 angstroms 
   Maximum component (any atom: x,y, or z) displacement:  0.350
    1 C                    6.0000    -0.00000001     0.00000000    -0.11920388
    2 O                    8.0000     0.00000002     0.00000001    -1.31802421
    3 N                    7.0000     0.00748227     1.25256831     0.62415110
    4 N                    7.0000    -0.00748231    -1.25256831     0.62415112
    5 H                    1.0000     0.67443995     1.13244968     1.43482592
    6 H                    1.0000    -0.94345667     1.39107773     1.06463701
    7 H                    1.0000     0.94345686    -1.39107793     1.06463677
    8 H                    1.0000    -0.67443986    -1.13244963     1.43482616


  Geometry after   50.0% step for mode  1; Step length =  0.263 angstroms 
   Maximum component (any atom: x,y, or z) displacement:  0.175
    1 C                    6.0000     0.00000000    -0.00000000    -0.11920387
    2 O                    8.0000    -0.00000001    -0.00000000    -1.31802421
    3 N                    7.0000    -0.00374113     1.25256831     0.62415112
    4 N                    7.0000     0.00374115    -1.25256831     0.62415110
    5 H                    1.0000     0.87620253     1.32642077     1.15718424
    6 H                    1.0000    -0.74169417     1.19710675     1.34227869
    7 H                    1.0000     0.74169407    -1.19710664     1.34227881
    8 H                    1.0000    -0.87620257    -1.32642080     1.15718412


  Geometry after  -50.0% step for mode  1; Step length =  0.263 angstroms 
   Maximum component (any atom: x,y, or z) displacement:  0.175
    1 C                    6.0000    -0.00000000     0.00000000    -0.11920388
    2 O                    8.0000     0.00000001     0.00000000    -1.31802421
    3 N                    7.0000     0.00374113     1.25256831     0.62415110
    4 N                    7.0000    -0.00374115    -1.25256831     0.62415112
    5 H                    1.0000     0.74169414     1.19710671     1.34227869
    6 H                    1.0000    -0.87620250     1.32642074     1.15718424
    7 H                    1.0000     0.87620260    -1.32642084     1.15718412
    8 H                    1.0000    -0.74169410    -1.19710668     1.34227881


  Geometry after   57.2% step for mode  1; Step length =  0.301 angstroms 
   Maximum component (any atom: x,y, or z) displacement:  0.200
    1 C                    6.0000     0.00000000    -0.00000000    -0.11920387
    2 O                    8.0000    -0.00000001    -0.00000001    -1.31802421
    3 N                    7.0000    -0.00427829     1.25256831     0.62415112
    4 N                    7.0000     0.00427831    -1.25256830     0.62415110
    5 H                    1.0000     0.88585900     1.33570433     1.14389615
    6 H                    1.0000    -0.73203771     1.18782319     1.35556678
    7 H                    1.0000     0.73203759    -1.18782307     1.35556692
    8 H                    1.0000    -0.88585905    -1.33570437     1.14389602


  Geometry after  -57.2% step for mode  1; Step length =  0.301 angstroms 
   Maximum component (any atom: x,y, or z) displacement:  0.200
    1 C                    6.0000    -0.00000000     0.00000000    -0.11920388
    2 O                    8.0000     0.00000001     0.00000001    -1.31802421
    3 N                    7.0000     0.00427829     1.25256831     0.62415110
    4 N                    7.0000    -0.00427831    -1.25256831     0.62415112
    5 H                    1.0000     0.73203767     1.18782315     1.35556678
    6 H                    1.0000    -0.88585897     1.33570429     1.14389616
    7 H                    1.0000     0.88585908    -1.33570441     1.14389602
    8 H                    1.0000    -0.73203763    -1.18782312     1.35556691


  Geometry after   28.6% step for mode  1; Step length =  0.150 angstroms 
   Maximum component (any atom: x,y, or z) displacement:  0.100
    1 C                    6.0000     0.00000000    -0.00000000    -0.11920387
    2 O                    8.0000    -0.00000001    -0.00000000    -1.31802421
    3 N                    7.0000    -0.00213915     1.25256831     0.62415111
    4 N                    7.0000     0.00213916    -1.25256831     0.62415111
    5 H                    1.0000     0.84740367     1.29873404     1.19681381
    6 H                    1.0000    -0.77049302     1.22479346     1.30264912
    7 H                    1.0000     0.77049296    -1.22479341     1.30264919
    8 H                    1.0000    -0.84740369    -1.29873405     1.19681374


  Geometry after  -28.6% step for mode  1; Step length =  0.150 angstroms 
   Maximum component (any atom: x,y, or z) displacement:  0.100
    1 C                    6.0000    -0.00000000     0.00000000    -0.11920388
    2 O                    8.0000     0.00000001     0.00000000    -1.31802421
    3 N                    7.0000     0.00213915     1.25256831     0.62415111
    4 N                    7.0000    -0.00213916    -1.25256831     0.62415111
    5 H                    1.0000     0.77049301     1.22479344     1.30264912
    6 H                    1.0000    -0.84740365     1.29873402     1.19681381
    7 H                    1.0000     0.84740371    -1.29873408     1.19681374
    8 H                    1.0000    -0.77049298    -1.22479343     1.30264919





 ===============================================================================
      Negative Nuclear Hessian Mode    2  Eigenvalue =   -388.24 cm**(-1)
 -------------------------------------------------------------------------------
   Raw step length:  0.490 angstroms ;  The Raw step for this mode is:
    1 C                    6.0000     0.00692572     0.00000000    -0.00000001
    2 O                    8.0000    -0.03016583    -0.00000000    -0.00000001
    3 N                    7.0000     0.03015698    -0.00000001     0.00000000
    4 N                    7.0000     0.03015698     0.00000002     0.00000000
    5 H                    1.0000    -0.11043333    -0.11706378     0.18301070
    6 H                    1.0000    -0.11043328     0.11706360    -0.18301065
    7 H                    1.0000    -0.11043317     0.11706359     0.18301047
    8 H                    1.0000    -0.11043311    -0.11706343    -0.18301042


  Geometry after  100.0% step for mode  2; Step length =  0.490 angstroms 
   Maximum component (any atom: x,y, or z) displacement:  0.346
    1 C                    6.0000     0.00692572     0.00000000    -0.11920388
    2 O                    8.0000    -0.03016583    -0.00000000    -1.31802422
    3 N                    7.0000     0.03015698     1.25256829     0.62415112
    4 N                    7.0000     0.03015698    -1.25256829     0.62415111
    5 H                    1.0000     0.69851501     1.14469997     1.43274217
    6 H                    1.0000    -0.91938161     1.37882734     1.06672082
    7 H                    1.0000     0.69851517    -1.14470016     1.43274194
    8 H                    1.0000    -0.91938145    -1.37882717     1.06672105


  Geometry after -100.0% step for mode  2; Step length =  0.490 angstroms 
   Maximum component (any atom: x,y, or z) displacement:  0.346
    1 C                    6.0000    -0.00692572    -0.00000000    -0.11920387
    2 O                    8.0000     0.03016583     0.00000000    -1.31802421
    3 N                    7.0000    -0.03015698     1.25256832     0.62415111
    4 N                    7.0000    -0.03015698    -1.25256832     0.62415111
    5 H                    1.0000     0.91938166     1.37882752     1.06672076
    6 H                    1.0000    -0.69851506     1.14470015     1.43274211
    7 H                    1.0000     0.91938150    -1.37882733     1.06672099
    8 H                    1.0000    -0.69851522    -1.14470031     1.43274189


  Geometry after   50.0% step for mode  2; Step length =  0.245 angstroms 
   Maximum component (any atom: x,y, or z) displacement:  0.173
    1 C                    6.0000     0.00346286     0.00000000    -0.11920388
    2 O                    8.0000    -0.01508292    -0.00000000    -1.31802421
    3 N                    7.0000     0.01507849     1.25256830     0.62415111
    4 N                    7.0000     0.01507849    -1.25256830     0.62415111
    5 H                    1.0000     0.75373167     1.20323185     1.34123682
    6 H                    1.0000    -0.86416497     1.32029554     1.15822614
    7 H                    1.0000     0.75373175    -1.20323195     1.34123670
    8 H                    1.0000    -0.86416489    -1.32029546     1.15822626


  Geometry after  -50.0% step for mode  2; Step length =  0.245 angstroms 
   Maximum component (any atom: x,y, or z) displacement:  0.173
    1 C                    6.0000    -0.00346286    -0.00000000    -0.11920387
    2 O                    8.0000     0.01508292     0.00000000    -1.31802421
    3 N                    7.0000    -0.01507849     1.25256831     0.62415111
    4 N                    7.0000    -0.01507849    -1.25256831     0.62415111
    5 H                    1.0000     0.86416500     1.32029563     1.15822612
    6 H                    1.0000    -0.75373170     1.20323194     1.34123679
    7 H                    1.0000     0.86416492    -1.32029553     1.15822623
    8 H                    1.0000    -0.75373178    -1.20323203     1.34123668


  Geometry after   57.8% step for mode  2; Step length =  0.284 angstroms 
   Maximum component (any atom: x,y, or z) displacement:  0.200
    1 C                    6.0000     0.00400516     0.00000000    -0.11920388
    2 O                    8.0000    -0.01744496    -0.00000000    -1.31802421
    3 N                    7.0000     0.01743984     1.25256830     0.62415111
    4 N                    7.0000     0.01743984    -1.25256830     0.62415111
    5 H                    1.0000     0.74508452     1.19406553     1.35556692
    6 H                    1.0000    -0.87281212     1.32946185     1.14389605
    7 H                    1.0000     0.74508462    -1.19406564     1.35556678
    8 H                    1.0000    -0.87281202    -1.32946175     1.14389618


  Geometry after  -57.8% step for mode  2; Step length =  0.284 angstroms 
   Maximum component (any atom: x,y, or z) displacement:  0.200
    1 C                    6.0000    -0.00400516    -0.00000000    -0.11920387
    2 O                    8.0000     0.01744496     0.00000000    -1.31802421
    3 N                    7.0000    -0.01743984     1.25256831     0.62415111
    4 N                    7.0000    -0.01743984    -1.25256832     0.62415111
    5 H                    1.0000     0.87281215     1.32946195     1.14389602
    6 H                    1.0000    -0.74508455     1.19406563     1.35556688
    7 H                    1.0000     0.87281205    -1.32946184     1.14389615
    8 H                    1.0000    -0.74508465    -1.19406573     1.35556675


  Geometry after   28.9% step for mode  2; Step length =  0.142 angstroms 
   Maximum component (any atom: x,y, or z) displacement:  0.100
    1 C                    6.0000     0.00200258     0.00000000    -0.11920388
    2 O                    8.0000    -0.00872248    -0.00000000    -1.31802421
    3 N                    7.0000     0.00871992     1.25256830     0.62415111
    4 N                    7.0000     0.00871992    -1.25256830     0.62415111
    5 H                    1.0000     0.77701643     1.22791463     1.30264919
    6 H                    1.0000    -0.84088023     1.29561280     1.19681376
    7 H                    1.0000     0.77701648    -1.22791469     1.30264912
    8 H                    1.0000    -0.84088018    -1.29561275     1.19681382


  Geometry after  -28.9% step for mode  2; Step length =  0.142 angstroms 
   Maximum component (any atom: x,y, or z) displacement:  0.100
    1 C                    6.0000    -0.00200258    -0.00000000    -0.11920387
    2 O                    8.0000     0.00872248     0.00000000    -1.31802421
    3 N                    7.0000    -0.00871992     1.25256831     0.62415111
    4 N                    7.0000    -0.00871992    -1.25256831     0.62415111
    5 H                    1.0000     0.84088024     1.29561285     1.19681374
    6 H                    1.0000    -0.77701644     1.22791469     1.30264917
    7 H                    1.0000     0.84088019    -1.29561279     1.19681381
    8 H                    1.0000    -0.77701649    -1.22791474     1.30264911


 vib:animation  F

 Task  times  cpu:       50.8s     wall:       54.5s
 
 
                                NWChem Input Module
                                -------------------
 
 
 Summary of allocated global arrays
-----------------------------------
  No active global arrays


MA_summarize_allocated_blocks: starting scan ...
MA_summarize_allocated_blocks: scan completed: 0 heap blocks, 0 stack blocks
MA usage statistics:

	allocation statistics:
					      heap	     stack
					      ----	     -----
	current number of blocks	         0	         0
	maximum number of blocks	        26	        57
	current total bytes		         0	         0
	maximum total bytes		   5955280	  89021336
	maximum total K-bytes		      5956	     89022
	maximum total M-bytes		         6	        90
 
 
                                     CITATION
                                     --------
                Please cite the following reference when publishing
                           results obtained with NWChem:
 
          E. Apra, E. J. Bylaska, W. A. de Jong, N. Govind, K. Kowalski,
       T. P. Straatsma, M. Valiev, H. J. J. van Dam, Y. Alexeev, J. Anchell,
       V. Anisimov, F. W. Aquino, R. Atta-Fynn, J. Autschbach, N. P. Bauman,
     J. C. Becca, D. E. Bernholdt, K. Bhaskaran-Nair, S. Bogatko, P. Borowski,
         J. Boschen, J. Brabec, A. Bruner, E. Cauet, Y. Chen, G. N. Chuev,
      C. J. Cramer, J. Daily, M. J. O. Deegan, T. H. Dunning Jr., M. Dupuis,
   K. G. Dyall, G. I. Fann, S. A. Fischer, A. Fonari, H. Fruchtl, L. Gagliardi,
      J. Garza, N. Gawande, S. Ghosh, K. Glaesemann, A. W. Gotz, J. Hammond,
       V. Helms, E. D. Hermes, K. Hirao, S. Hirata, M. Jacquelin, L. Jensen,
   B. G. Johnson, H. Jonsson, R. A. Kendall, M. Klemm, R. Kobayashi, V. Konkov,
      S. Krishnamoorthy, M. Krishnan, Z. Lin, R. D. Lins, R. J. Littlefield,
      A. J. Logsdail, K. Lopata, W. Ma, A. V. Marenich, J. Martin del Campo,
   D. Mejia-Rodriguez, J. E. Moore, J. M. Mullin, T. Nakajima, D. R. Nascimento,
    J. A. Nichols, P. J. Nichols, J. Nieplocha, A. Otero-de-la-Roza, B. Palmer,
    A. Panyala, T. Pirojsirikul, B. Peng, R. Peverati, J. Pittner, L. Pollack,
   R. M. Richard, P. Sadayappan, G. C. Schatz, W. A. Shelton, D. W. Silverstein,
   D. M. A. Smith, T. A. Soares, D. Song, M. Swart, H. L. Taylor, G. S. Thomas,
            V. Tipparaju, D. G. Truhlar, K. Tsemekhman, T. Van Voorhis,
      A. Vazquez-Mayagoitia, P. Verma, O. Villa, A. Vishnu, K. D. Vogiatzis,
        D. Wang, J. H. Weare, M. J. Williamson, T. L. Windus, K. Wolinski,
        A. T. Wong, Q. Wu, C. Yang, Q. Yu, M. Zacharias, Z. Zhang, Y. Zhao,
                                and R. J. Harrison
                        "NWChem: Past, present, and future
                         J. Chem. Phys. 152, 184102 (2020)
                               doi:10.1063/5.0004997
 
                                      AUTHORS
                                      -------
  E. Apra, E. J. Bylaska, N. Govind, K. Kowalski, M. Valiev, D. Mejia-Rodriguez,
       A. Kunitsa, N. P. Bauman, A. Panyala, W. A. de Jong, T. P. Straatsma,
   H. J. J. van Dam, D. Wang, T. L. Windus, J. Hammond, J. Autschbach, A. Woods,
    K. Bhaskaran-Nair, J. Brabec, K. Lopata, S. A. Fischer, S. Krishnamoorthy,
     M. Jacquelin, W. Ma, M. Klemm, O. Villa, Y. Chen, V. Anisimov, F. Aquino,
     S. Hirata, M. T. Hackler, E. Hermes, L. Jensen, J. E. Moore, J. C. Becca,
      V. Konjkov, T. Risthaus, M. Malagoli, A. Marenich, A. Otero-de-la-Roza,
        J. Mullin, P. Nichols, R. Peverati, J. Pittner, Y. Zhao, P.-D. Fan,
        A. Fonari, M. J. Williamson, R. J. Harrison, J. R. Rehr, M. Dupuis,
     D. Silverstein, D. M. A. Smith, J. Nieplocha, V. Tipparaju, M. Krishnan,
     B. E. Van Kuiken, A. Vazquez-Mayagoitia, M. Swart, Q. Wu, T. Van Voorhis,
     A. A. Auer, M. Nooijen, L. D. Crosby, E. Brown, G. Cisneros, G. I. Fann,
   H. Fruchtl, J. Garza, K. Hirao, R. A. Kendall, J. A. Nichols, K. Tsemekhman,
    K. Wolinski, J. Anchell, D. E. Bernholdt, P. Borowski, T. Clark, D. Clerc,
   H. Dachsel, M. J. O. Deegan, K. Dyall, D. Elwood, E. Glendening, M. Gutowski,
   A. C. Hess, J. Jaffe, B. G. Johnson, J. Ju, R. Kobayashi, R. Kutteh, Z. Lin,
   R. Littlefield, X. Long, B. Meng, T. Nakajima, S. Niu, L. Pollack, M. Rosing,
   K. Glaesemann, G. Sandrone, M. Stave, H. Taylor, G. Thomas, J. H. van Lenthe,
                               A. T. Wong, Z. Zhang.

 Total times  cpu:       99.3s     wall:      112.2s
