 argument  1 = water.nw
 


============================== echo of input deck ==============================
start water
title "water opt+freq (B3LYP/6-31g*)"
echo

geometry units angstrom
  O  0.000000  0.000000  0.000000
  H  0.756848  0.586014  0.000000
  H  -0.756848  0.586014  0.000000
end

charge 0

basis
  * library 6-31g*
end

dft
  xc b3lyp
  grid xfine
end

driver
  maxiter 200
end

task dft optimize
task dft freq
================================================================================


                                         
                                         
 
 
             Northwest Computational Chemistry Package (NWChem) 7.2.2
             --------------------------------------------------------
 
 
                    Environmental Molecular Sciences Laboratory
                       Pacific Northwest National Laboratory
                                Richland, WA 99352
 
                              Copyright (c) 1994-2022
                       Pacific Northwest National Laboratory
                            Battelle Memorial Institute
 
             NWChem is an open-source computational chemistry package
                        distributed under the terms of the
                      Educational Community License (ECL) 2.0
             A copy of the license is included with this distribution
                              in the LICENSE.TXT file
 
                                  ACKNOWLEDGMENT
                                  --------------

            This software and its documentation were developed at the
            EMSL at Pacific Northwest National Laboratory, a multiprogram
            national laboratory, operated for the U.S. Department of Energy
            by Battelle under Contract Number DE-AC05-76RL01830. Support
            for this work was provided by the Department of Energy Office
            of Biological and Environmental Research, Office of Basic
            Energy Sciences, and the Office of Advanced Scientific Computing.


           Job information
           ---------------

    hostname        = charliebox
    program         = /apps/nwchem/bin/nwchem
    date            = Sun Oct 19 15:12:52 2025

    compiled        = Tue_Apr_23_01:04:59_2024
    source          = /apps/nwchem-7.2.2-release
    nwchem branch   = 7.2.2
    nwchem revision = N/A
    ga revision     = 5.8.0
    use scalapack   = T
    input           = water.nw
    prefix          = water.
    data base       = ./water.db
    status          = startup
    nproc           =       19
    time left       =     -1s



           Memory information
           ------------------

    heap     =   26214394 doubles =    200.0 Mbytes
    stack    =   26214399 doubles =    200.0 Mbytes
    global   =   52428800 doubles =    400.0 Mbytes (distinct from heap & stack)
    total    =  104857593 doubles =    800.0 Mbytes
    verify   = yes
    hardfail = no 


           Directory information
           ---------------------
 
  0 permanent = .
  0 scratch   = .
 
 
 
 
                                NWChem Input Module
                                -------------------
 
 
                           water opt+freq (B3LYP/6-31g*)
                           -----------------------------

 Scaling coordinates for geometry "geometry" by  1.889725989
 (inverse scale =  0.529177249)

 C2V symmetry detected

          ------
          auto-z
          ------
  no constraints, skipping   0.000000000000000E+000
  no constraints, skipping   0.000000000000000E+000
 
 
                             Geometry "geometry" -> ""
                             -------------------------
 
 Output coordinates in angstroms (scale by  1.889725989 to convert to a.u.)
 
  No.       Tag          Charge          X              Y              Z
 ---- ---------------- ---------- -------------- -------------- --------------
    1 O                    8.0000     0.00000000     0.00000000    -0.11720280
    2 H                    1.0000    -0.75684800     0.00000000     0.46881120
    3 H                    1.0000     0.75684800     0.00000000     0.46881120
 
      Atomic Mass 
      ----------- 
 
      O                 15.994910
      H                  1.007825
 

 Effective nuclear repulsion energy (a.u.)       9.1950153661

            Nuclear Dipole moment (a.u.) 
            ----------------------------
        X                 Y               Z
 ---------------- ---------------- ----------------
     0.0000000000     0.0000000000     0.0000000000
 
      Symmetry information
      --------------------
 
 Group name             C2v       
 Group number             16
 Group order               4
 No. of unique centers     2
 
      Symmetry unique atoms
 
     1    2
 


                                Z-matrix (autoz)
                                -------- 

 Units are Angstrom for bonds and degrees for angles
 
      Type          Name      I     J     K     L     M      Value
      ----------- --------  ----- ----- ----- ----- ----- ----------
    1 Stretch                  1     2                       0.95720
    2 Stretch                  1     3                       0.95720
    3 Bend                     2     1     3               104.50003
 
 
            XYZ format geometry
            -------------------
     3
 geometry
 O                     0.00000000     0.00000000    -0.11720280
 H                    -0.75684800     0.00000000     0.46881120
 H                     0.75684800     0.00000000     0.46881120
 
 ==============================================================================
                                internuclear distances
 ------------------------------------------------------------------------------
       center one      |      center two      | atomic units |  angstroms
 ------------------------------------------------------------------------------
    2 H                |   1 O                |     1.80885  |     0.95720
    3 H                |   1 O                |     1.80885  |     0.95720
 ------------------------------------------------------------------------------
                         number of included internuclear distances:          2
 ==============================================================================



 ==============================================================================
                                 internuclear angles
 ------------------------------------------------------------------------------
        center 1       |       center 2       |       center 3       |  degrees
 ------------------------------------------------------------------------------
    2 H                |   1 O                |   3 H                |   104.50
 ------------------------------------------------------------------------------
                            number of included internuclear angles:          1
 ==============================================================================



  library name resolved from: environment
  library file name is: </apps/nwchem/data/libraries/>
  


 Summary of "ao basis" -> "" (cartesian)
 ------------------------------------------------------------------------------
       Tag                 Description            Shells   Functions and Types
 ---------------- ------------------------------  ------  ---------------------
 *                           6-31g*                   on all atoms 


 
 
                           NWChem Geometry Optimization
                           ----------------------------
 
 
 
 
                           water opt+freq (B3LYP/6-31g*)
 
 
  no constraints, skipping   0.000000000000000E+000
 maximum gradient threshold         (gmax) =   0.000450
 rms gradient threshold             (grms) =   0.000300
 maximum cartesian step threshold   (xmax) =   0.001800
 rms cartesian step threshold       (xrms) =   0.001200
 fixed trust radius                (trust) =   0.300000
 maximum step size to saddle      (sadstp) =   0.100000
 energy precision                  (eprec) =   5.0D-06
 maximum number of steps          (nptopt) =  200
 initial hessian option           (inhess) =    0
 line search option               (linopt) =    1
 hessian update option            (modupd) =    1
 saddle point option              (modsad) =    0
 initial eigen-mode to follow     (moddir) =    0
 initial variable to follow       (vardir) =    0
 follow first negative mode     (firstneg) =    T
 apply conjugacy                    (opcg) =    F
 source of zmatrix                         =   autoz   


          -------------------
          Energy Minimization
          -------------------

 
 Names of Z-matrix variables 
    1              2              3         
 
 Variables with the same non-blank name are constrained to be equal
 
 
 Using old Hessian from previous optimization

          --------
          Step   0
          --------
 
 
                         Geometry "geometry" -> "geometry"
                         ---------------------------------
 
 Output coordinates in angstroms (scale by  1.889725989 to convert to a.u.)
 
  No.       Tag          Charge          X              Y              Z
 ---- ---------------- ---------- -------------- -------------- --------------
    1 O                    8.0000     0.00000000     0.00000000    -0.11720280
    2 H                    1.0000    -0.75684800     0.00000000     0.46881120
    3 H                    1.0000     0.75684800     0.00000000     0.46881120
 
      Atomic Mass 
      ----------- 
 
      O                 15.994910
      H                  1.007825
 

 Effective nuclear repulsion energy (a.u.)       9.1950153661

            Nuclear Dipole moment (a.u.) 
            ----------------------------
        X                 Y               Z
 ---------------- ---------------- ----------------
     0.0000000000     0.0000000000     0.0000000000
 
      Symmetry information
      --------------------
 
 Group name             C2v       
 Group number             16
 Group order               4
 No. of unique centers     2
 
      Symmetry unique atoms
 
     1    2
 
 
                                 NWChem DFT Module
                                 -----------------
 
 
                           water opt+freq (B3LYP/6-31g*)
 
 
                      Basis "ao basis" -> "ao basis" (cartesian)
                      -----
  O (Oxygen)
  ----------
            Exponent  Coefficients 
       -------------- ---------------------------------------------------------
  1 S  5.48467170E+03  0.001831
  1 S  8.25234950E+02  0.013950
  1 S  1.88046960E+02  0.068445
  1 S  5.29645000E+01  0.232714
  1 S  1.68975700E+01  0.470193
  1 S  5.79963530E+00  0.358521
 
  2 S  1.55396160E+01 -0.110778
  2 S  3.59993360E+00 -0.148026
  2 S  1.01376180E+00  1.130767
 
  3 P  1.55396160E+01  0.070874
  3 P  3.59993360E+00  0.339753
  3 P  1.01376180E+00  0.727159
 
  4 S  2.70005800E-01  1.000000
 
  5 P  2.70005800E-01  1.000000
 
  6 D  8.00000000E-01  1.000000
 
  H (Hydrogen)
  ------------
            Exponent  Coefficients 
       -------------- ---------------------------------------------------------
  1 S  1.87311370E+01  0.033495
  1 S  2.82539370E+00  0.234727
  1 S  6.40121700E-01  0.813757
 
  2 S  1.61277800E-01  1.000000
 


 Summary of "ao basis" -> "ao basis" (cartesian)
 ------------------------------------------------------------------------------
       Tag                 Description            Shells   Functions and Types
 ---------------- ------------------------------  ------  ---------------------
 O                           6-31g*                  6       15   3s2p1d
 H                           6-31g*                  2        2   2s




 Summary of "ao basis" -> "ao basis" (cartesian)
 ------------------------------------------------------------------------------
       Tag                 Description            Shells   Functions and Types
 ---------------- ------------------------------  ------  ---------------------
 O                           6-31g*                  6       15   3s2p1d
 H                           6-31g*                  2        2   2s


      Symmetry analysis of basis
      --------------------------
 
        a1         10
        a2          1
        b1          5
        b2          3
 
  Caching 1-el integrals 
 
            General Information
            -------------------
          SCF calculation type: DFT
          Wavefunction type:  closed shell.
          No. of atoms     :     3
          No. of electrons :    10
           Alpha electrons :     5
            Beta electrons :     5
          Charge           :     0
          Spin multiplicity:     1
          Use of symmetry is: on ; symmetry adaption is: on 
          Maximum number of iterations:  50
          AO basis - number of functions:    19
                     number of shells:    10
          Convergence on energy requested:  1.00D-06
          Convergence on density requested:  1.00D-05
          Convergence on gradient requested:  5.00D-04
 
              XC Information
              --------------
                         B3LYP Method XC Potential
                     Hartree-Fock (Exact) Exchange  0.200          
                        Slater Exchange Functional  0.800 local    
                    Becke 1988 Exchange Functional  0.720 non-local
              Lee-Yang-Parr Correlation Functional  0.810          
                  VWN I RPA Correlation Functional  0.190 local    
 
             Grid Information
             ----------------
          Grid used for XC integration:  xfine     
          Radial quadrature: Mura-Knowles        
          Angular quadrature: Lebedev. 
          Tag              B.-S. Rad. Rad. Pts. Rad. Cut. Ang. Pts.
          ---              ---------- --------- --------- ---------
          O                   0.60      100           5.0      1454
          H                   0.35      100           7.0      1202
          Grid pruning is: on 
          Number of quadrature shells:   200
          Spatial weights used:  Erf1
 
          Convergence Information
          -----------------------
          Convergence aids based upon iterative change in 
          total energy or number of iterations. 
          Levelshifting, if invoked, occurs when the 
          HOMO/LUMO gap drops below (HL_TOL):  1.00D-02
          DIIS, if invoked, will attempt to extrapolate 
          using up to (NFOCK): 10 stored Fock matrices.

                    Damping( 0%)  Levelshifting(0.5)       DIIS
                  --------------- ------------------- ---------------
          dE  on:    start            ASAP                start   
          dE off:    2 iters         50 iters            50 iters 

 
      Screening Tolerance Information
      -------------------------------
          Density screening/tol_rho:  1.00D-10
          AO Gaussian exp screening on grid/accAOfunc:  14
          CD Gaussian exp screening on grid/accCDfunc:  20
          XC Gaussian exp screening on grid/accXCfunc:  20
          Schwarz screening/accCoul:  1.00D-08

 
      Superposition of Atomic Density Guess
      -------------------------------------
 
 Sum of atomic energies:         -75.75081731
 
      Non-variational initial energy
      ------------------------------

 Total energy =     -75.919516
 1-e energy   =    -121.734285
 2-e energy   =      36.619753
 HOMO         =      -0.470410
 LUMO         =       0.114817
 
 
      Symmetry analysis of molecular orbitals - initial
      -------------------------------------------------
 
  Numbering of irreducible representations: 
 
     1 a1          2 a2          3 b1          4 b2      
 
  Orbital symmetries:
 
     1 a1          2 a1          3 b1          4 a1          5 b2      
     6 a1          7 b1          8 b1          9 a1         10 b2      
    11 a1         12 b1         13 a1         14 a1         15 a2      
 
  WARNING: movecs_in_org=atomic not equal to movecs_in=./water.movecs
   Time after variat. SCF:      1.0
   Time prior to 1st pass:      1.0

 #quartets = 1.009D+03 #integrals = 5.756D+03 #direct =  0.0% #cached =100.0%


 Integral file          = ./water.aoints.00
 Record size in doubles =  65536        No. of integs per rec  =  43688
 Max. records in memory =      3        Max. records in file   = 224870
 No. of bits per label  =      8        No. of bits per value  =     64


File balance: exchanges=     0  moved=     0  time=   0.0


 Grid_pts file          = ./water.gridpts.00
 Record size in doubles =  12289        No. of grid_pts per rec  =   3070
 Max. records in memory =      7        Max. recs in file   =   1199213

 Grid integrated density:      10.000000262540
 Requested integration accuracy:   0.10E-07

           Memory utilization after 1st SCF pass: 
           Heap Space remaining (MW):       25.93            25930106
          Stack Space remaining (MW):       26.21            26214164

   convergence    iter        energy       DeltaE   RMS-Dens  Diis-err    time
 ---------------- ----- ----------------- --------- --------- ---------  ------
 d= 0,ls=0.0,diis     1    -76.3719999715 -8.56D+01  4.04D-02  3.79D-01     1.3
 Grid integrated density:      10.000000277106
 Requested integration accuracy:   0.10E-07
 d= 0,ls=0.0,diis     2    -76.3684454436  3.55D-03  1.98D-02  4.52D-01     2.0
 d= 0,ls=0.0,diis     3    -76.4076861593 -3.92D-02  2.62D-03  1.17D-02     2.6
 d= 0,ls=0.0,diis     4    -76.4086998822 -1.01D-03  2.34D-04  7.17D-05     4.2
 d= 0,ls=0.0,diis     5    -76.4087068929 -7.01D-06  1.00D-05  4.19D-08     4.2
 d= 0,ls=0.0,diis     6    -76.4087068985 -5.59D-09  1.76D-06  1.10D-09     4.2


         Total DFT energy =      -76.408706898510
      One electron energy =     -123.129766334365
           Coulomb energy =       46.880456529956
    Exchange-Corr. energy =       -9.354412460178
 Nuclear repulsion energy =        9.195015366077

 Numeric. integr. density =       10.000000013384

     Total iterative time =      3.3s


 
                  Occupations of the irreducible representations
                  ----------------------------------------------
 
                     irrep           alpha         beta
                     --------     --------     --------
                     a1                3.0          3.0
                     a2                0.0          0.0
                     b1                1.0          1.0
                     b2                1.0          1.0
 
 
                       DFT Final Molecular Orbital Analysis
                       ------------------------------------
 
 Vector    1  Occ=2.000000D+00  E=-1.913573D+01  Symmetry=a1
              MO Center= -2.4D-20, -2.1D-26, -1.2D-01, r^2= 1.5D-02
   Bfn.  Coefficient  Atom+Function         Bfn.  Coefficient  Atom+Function  
  ----- ------------  ---------------      ----- ------------  ---------------
     1      0.992846  1 O  s                  2      0.026236  1 O  s          
 
 Vector    2  Occ=2.000000D+00  E=-1.002154D+00  Symmetry=a1
              MO Center=  3.0D-17,  7.1D-17,  9.0D-02, r^2= 5.0D-01
   Bfn.  Coefficient  Atom+Function         Bfn.  Coefficient  Atom+Function  
  ----- ------------  ---------------      ----- ------------  ---------------
     2      0.468958  1 O  s                  6      0.434696  1 O  s          
     1     -0.209270  1 O  s                 16      0.141506  2 H  s          
    18      0.141506  3 H  s                  5      0.129201  1 O  pz         
     9      0.059526  1 O  pz         
 
 Vector    3  Occ=2.000000D+00  E=-5.229482D-01  Symmetry=b1
              MO Center=  3.2D-16,  1.8D-20,  1.1D-01, r^2= 7.8D-01
   Bfn.  Coefficient  Atom+Function         Bfn.  Coefficient  Atom+Function  
  ----- ------------  ---------------      ----- ------------  ---------------
     3      0.518717  1 O  px                 7      0.267122  1 O  px         
    16     -0.238832  2 H  s                 18      0.238832  3 H  s          
    17     -0.138616  2 H  s                 19      0.138616  3 H  s          
    12      0.071415  1 O  dxz        
 
 Vector    4  Occ=2.000000D+00  E=-3.712525D-01  Symmetry=a1
              MO Center= -2.7D-16, -2.1D-16, -2.0D-01, r^2= 6.9D-01
   Bfn.  Coefficient  Atom+Function         Bfn.  Coefficient  Atom+Function  
  ----- ------------  ---------------      ----- ------------  ---------------
     5      0.554207  1 O  pz                 6     -0.409768  1 O  s          
     9      0.374693  1 O  pz                 2     -0.176586  1 O  s          
    16      0.141850  2 H  s                 18      0.141850  3 H  s          
    17      0.110769  2 H  s                 19      0.110769  3 H  s          
     1      0.087788  1 O  s                 15      0.052691  1 O  dzz        
 
 Vector    5  Occ=2.000000D+00  E=-2.917444D-01  Symmetry=b2
              MO Center=  3.6D-17,  9.8D-16, -9.6D-02, r^2= 6.0D-01
   Bfn.  Coefficient  Atom+Function         Bfn.  Coefficient  Atom+Function  
  ----- ------------  ---------------      ----- ------------  ---------------
     4      0.644218  1 O  py                 8      0.506420  1 O  py         
    14      0.062067  1 O  dyz        
 
 Vector    6  Occ=0.000000D+00  E= 6.589337D-02  Symmetry=a1
              MO Center= -1.7D-17, -2.6D-17,  6.2D-01, r^2= 2.4D+00
   Bfn.  Coefficient  Atom+Function         Bfn.  Coefficient  Atom+Function  
  ----- ------------  ---------------      ----- ------------  ---------------
     6      1.285387  1 O  s                 17     -0.981580  2 H  s          
    19     -0.981580  3 H  s                  9      0.472845  1 O  pz         
     5      0.273709  1 O  pz                 2      0.118739  1 O  s          
     1     -0.101541  1 O  s                 16     -0.093377  2 H  s          
    18     -0.093377  3 H  s                 13     -0.059201  1 O  dyy        
 
 Vector    7  Occ=0.000000D+00  E= 1.524285D-01  Symmetry=b1
              MO Center=  1.9D-16,  2.1D-20,  5.7D-01, r^2= 2.5D+00
   Bfn.  Coefficient  Atom+Function         Bfn.  Coefficient  Atom+Function  
  ----- ------------  ---------------      ----- ------------  ---------------
    17      1.302046  2 H  s                 19     -1.302046  3 H  s          
     7      0.766840  1 O  px                 3      0.409283  1 O  px         
    16      0.102173  2 H  s                 18     -0.102173  3 H  s          
    12      0.033324  1 O  dxz        
 
 Vector    8  Occ=0.000000D+00  E= 7.808889D-01  Symmetry=b1
              MO Center= -9.4D-18,  5.0D-17,  1.3D-01, r^2= 1.6D+00
   Bfn.  Coefficient  Atom+Function         Bfn.  Coefficient  Atom+Function  
  ----- ------------  ---------------      ----- ------------  ---------------
    16      0.842135  2 H  s                 18     -0.842135  3 H  s          
    17     -0.616136  2 H  s                 19      0.616136  3 H  s          
     7      0.478628  1 O  px                12     -0.341712  1 O  dxz        
     3      0.167094  1 O  px         
 
 Vector    9  Occ=0.000000D+00  E= 8.697945D-01  Symmetry=a1
              MO Center=  8.0D-18,  2.1D-15,  1.0D-01, r^2= 1.3D+00
   Bfn.  Coefficient  Atom+Function         Bfn.  Coefficient  Atom+Function  
  ----- ------------  ---------------      ----- ------------  ---------------
     5      0.764097  1 O  pz                16     -0.660708  2 H  s          
    18     -0.660708  3 H  s                 17      0.498074  2 H  s          
    19      0.498074  3 H  s                  9     -0.459351  1 O  pz         
    10     -0.176286  1 O  dxx               13      0.087271  1 O  dyy        
     2      0.049383  1 O  s                  1     -0.037428  1 O  s          
 
 Vector   10  Occ=0.000000D+00  E= 8.909114D-01  Symmetry=b2
              MO Center=  7.8D-18, -1.8D-15, -1.1D-01, r^2= 1.1D+00
   Bfn.  Coefficient  Atom+Function         Bfn.  Coefficient  Atom+Function  
  ----- ------------  ---------------      ----- ------------  ---------------
     8     -1.038443  1 O  py                 4      0.959673  1 O  py         
    14     -0.027993  1 O  dyz        
 
 Vector   11  Occ=0.000000D+00  E= 8.958551D-01  Symmetry=a1
              MO Center= -2.8D-17,  1.2D-16, -2.1D-01, r^2= 1.5D+00
   Bfn.  Coefficient  Atom+Function         Bfn.  Coefficient  Atom+Function  
  ----- ------------  ---------------      ----- ------------  ---------------
     6      1.341504  1 O  s                  2     -0.820382  1 O  s          
     9     -0.808080  1 O  pz                16      0.548226  2 H  s          
    18      0.548226  3 H  s                  5      0.487668  1 O  pz         
    17     -0.412024  2 H  s                 19     -0.412024  3 H  s          
    13     -0.331949  1 O  dyy               15     -0.270108  1 O  dzz        
 
 Vector   12  Occ=0.000000D+00  E= 1.069359D+00  Symmetry=b1
              MO Center=  1.7D-16,  3.9D-17, -8.7D-02, r^2= 1.5D+00
   Bfn.  Coefficient  Atom+Function         Bfn.  Coefficient  Atom+Function  
  ----- ------------  ---------------      ----- ------------  ---------------
     7      1.637565  1 O  px                 3     -0.993229  1 O  px         
    17      0.954525  2 H  s                 19     -0.954525  3 H  s          
    16     -0.030276  2 H  s                 18      0.030276  3 H  s          
 
 Vector   13  Occ=0.000000D+00  E= 1.192265D+00  Symmetry=a1
              MO Center= -1.5D-16, -1.2D-15,  3.7D-01, r^2= 1.4D+00
   Bfn.  Coefficient  Atom+Function         Bfn.  Coefficient  Atom+Function  
  ----- ------------  ---------------      ----- ------------  ---------------
     6      3.662100  1 O  s                  2     -1.479929  1 O  s          
     9      1.090148  1 O  pz                17     -0.800698  2 H  s          
    19     -0.800698  3 H  s                 10     -0.658893  1 O  dxx        
     5     -0.392799  1 O  pz                15     -0.392478  1 O  dzz        
    16     -0.335153  2 H  s                 18     -0.335153  3 H  s          
 
 Vector   14  Occ=0.000000D+00  E= 1.729034D+00  Symmetry=a1
              MO Center= -7.2D-18, -3.4D-17, -1.7D-01, r^2= 6.2D-01
   Bfn.  Coefficient  Atom+Function         Bfn.  Coefficient  Atom+Function  
  ----- ------------  ---------------      ----- ------------  ---------------
    15      1.009701  1 O  dzz               10     -0.581086  1 O  dxx        
    13     -0.360330  1 O  dyy                6     -0.262090  1 O  s          
     9     -0.145943  1 O  pz                 2      0.091949  1 O  s          
    16      0.085422  2 H  s                 18      0.085422  3 H  s          
    17      0.044026  2 H  s                 19      0.044026  3 H  s          
 
 Vector   15  Occ=0.000000D+00  E= 1.743147D+00  Symmetry=a2
              MO Center= -5.3D-16, -8.9D-17, -1.2D-01, r^2= 6.1D-01
   Bfn.  Coefficient  Atom+Function         Bfn.  Coefficient  Atom+Function  
  ----- ------------  ---------------      ----- ------------  ---------------
    11      1.732051  1 O  dxy        
 
 Vector   16  Occ=0.000000D+00  E= 1.779033D+00  Symmetry=b2
              MO Center=  4.8D-16,  2.3D-18, -1.4D-01, r^2= 6.1D-01
   Bfn.  Coefficient  Atom+Function         Bfn.  Coefficient  Atom+Function  
  ----- ------------  ---------------      ----- ------------  ---------------
    14      1.730712  1 O  dyz                8     -0.034957  1 O  py         
 
 Vector   17  Occ=0.000000D+00  E= 2.294686D+00  Symmetry=a1
              MO Center= -4.9D-17,  4.3D-18, -2.5D-03, r^2= 8.3D-01
   Bfn.  Coefficient  Atom+Function         Bfn.  Coefficient  Atom+Function  
  ----- ------------  ---------------      ----- ------------  ---------------
     6      1.575382  1 O  s                 13     -1.130634  1 O  dyy        
    16     -0.832497  2 H  s                 18     -0.832497  3 H  s          
    10      0.755902  1 O  dxx                9      0.746477  1 O  pz         
     2     -0.511694  1 O  s                 17     -0.149024  2 H  s          
    19     -0.149024  3 H  s                  1     -0.053249  1 O  s          
 
 Vector   18  Occ=0.000000D+00  E= 2.598342D+00  Symmetry=b1
              MO Center= -5.3D-17,  2.4D-21, -6.5D-02, r^2= 8.7D-01
   Bfn.  Coefficient  Atom+Function         Bfn.  Coefficient  Atom+Function  
  ----- ------------  ---------------      ----- ------------  ---------------
    12      2.225901  1 O  dxz               16      0.948873  2 H  s          
    18     -0.948873  3 H  s                  7      0.876750  1 O  px         
    17     -0.037062  2 H  s                 19      0.037062  3 H  s          
     3     -0.025170  1 O  px         
 
 Vector   19  Occ=0.000000D+00  E= 3.559338D+00  Symmetry=a1
              MO Center= -2.4D-17,  1.2D-19, -1.2D-01, r^2= 1.0D+00
   Bfn.  Coefficient  Atom+Function         Bfn.  Coefficient  Atom+Function  
  ----- ------------  ---------------      ----- ------------  ---------------
     6      3.719919  1 O  s                 13     -1.579680  1 O  dyy        
    15     -1.556184  1 O  dzz               10     -1.534824  1 O  dxx        
    17     -0.565783  2 H  s                 19     -0.565783  3 H  s          
     1     -0.469224  1 O  s                  9      0.331496  1 O  pz         
     2      0.279252  1 O  s                 16      0.124545  2 H  s          
 

 center of mass
 --------------
 x =   0.00000000 y =   0.00000000 z =  -0.09754596

 moments of inertia (a.u.)
 ------------------
           2.195246845407           0.000000000000           0.000000000000
           0.000000000000           6.318406291626           0.000000000000
           0.000000000000           0.000000000000           4.123159446219
 
     Multipole analysis of the density
     ---------------------------------
 
     L   x y z        total         alpha         beta         nuclear
     -   - - -        -----         -----         ----         -------
     0   0 0 0     -0.000000     -5.000000     -5.000000     10.000000
 
     1   1 0 0     -0.000000     -0.000000     -0.000000      0.000000
     1   0 1 0      0.000000      0.000000      0.000000      0.000000
     1   0 0 1      0.817755      0.408877      0.408877      0.000000
 
     2   2 0 0     -3.170596     -3.630871     -3.630871      4.091146
     2   1 1 0      0.000000      0.000000      0.000000      0.000000
     2   1 0 1      0.000000      0.000000      0.000000      0.000000
     2   0 2 0     -5.338785     -2.669392     -2.669392      0.000000
     2   0 1 1      0.000000      0.000000      0.000000      0.000000
     2   0 0 2     -4.465540     -3.213848     -3.213848      1.962156
 

 Parallel integral file used      19 records with       0 large values

 
            General Information
            -------------------
          SCF calculation type: DFT
          Wavefunction type:  closed shell.
          No. of atoms     :     3
          No. of electrons :    10
           Alpha electrons :     5
            Beta electrons :     5
          Charge           :     0
          Spin multiplicity:     1
          Use of symmetry is: on ; symmetry adaption is: on 
          Maximum number of iterations:  50
          AO basis - number of functions:    19
                     number of shells:    10
          Convergence on energy requested:  1.00D-06
          Convergence on density requested:  1.00D-05
          Convergence on gradient requested:  5.00D-04
 
              XC Information
              --------------
                         B3LYP Method XC Potential
                     Hartree-Fock (Exact) Exchange  0.200          
                        Slater Exchange Functional  0.800 local    
                    Becke 1988 Exchange Functional  0.720 non-local
              Lee-Yang-Parr Correlation Functional  0.810          
                  VWN I RPA Correlation Functional  0.190 local    
 
             Grid Information
             ----------------
          Grid used for XC integration:  xfine     
          Radial quadrature: Mura-Knowles        
          Angular quadrature: Lebedev. 
          Tag              B.-S. Rad. Rad. Pts. Rad. Cut. Ang. Pts.
          ---              ---------- --------- --------- ---------
          O                   0.60      100           5.0      1454
          H                   0.35      100           7.0      1202
          Grid pruning is: on 
          Number of quadrature shells:   200
          Spatial weights used:  Erf1
 
          Convergence Information
          -----------------------
          Convergence aids based upon iterative change in 
          total energy or number of iterations. 
          Levelshifting, if invoked, occurs when the 
          HOMO/LUMO gap drops below (HL_TOL):  1.00D-02
          DIIS, if invoked, will attempt to extrapolate 
          using up to (NFOCK): 10 stored Fock matrices.

                    Damping( 0%)  Levelshifting(0.5)       DIIS
                  --------------- ------------------- ---------------
          dE  on:    start            ASAP                start   
          dE off:    2 iters         50 iters            50 iters 

 
      Screening Tolerance Information
      -------------------------------
          Density screening/tol_rho:  1.00D-10
          AO Gaussian exp screening on grid/accAOfunc:  14
          CD Gaussian exp screening on grid/accCDfunc:  20
          XC Gaussian exp screening on grid/accXCfunc:  20
          Schwarz screening/accCoul:  1.00D-08

 
 
                            NWChem DFT Gradient Module
                            --------------------------
 
 
                           water opt+freq (B3LYP/6-31g*)
 
 

  charge          =   0.00
  wavefunction    = closed shell

  Using symmetry


                         DFT ENERGY GRADIENTS

    atom               coordinates                        gradient
                 x          y          z           x          y          z
   1 O       0.000000   0.000000  -0.221481    0.000000   0.000000   0.014639
   2 H      -1.430235   0.000000   0.885925    0.008311   0.000000  -0.007320
   3 H       1.430235   0.000000   0.885925   -0.008311   0.000000  -0.007320
 
                 ----------------------------------------
                 |  Time  |  1-e(secs)   |  2-e(secs)   |
                 ----------------------------------------
                 |  CPU   |       0.00   |       0.00   |
                 ----------------------------------------
                 |  WALL  |       0.00   |       0.00   |
                 ----------------------------------------
  no constraints, skipping   0.000000000000000E+000

@ Step       Energy      Delta E   Gmax     Grms     Xrms     Xmax   Walltime
@ ---- ---------------- -------- -------- -------- -------- -------- --------
@    0     -76.40870690  0.0D+00  0.01105  0.00903  0.00000  0.00000      6.1
                                                                    



                                Z-matrix (autoz)
                                -------- 

 Units are Angstrom for bonds and degrees for angles
 
      Type          Name      I     J     K     L     M      Value     Gradient
      ----------- --------  ----- ----- ----- ----- ----- ---------- ----------
    1 Stretch                  1     2                       0.95720   -0.01105
    2 Stretch                  1     3                       0.95720   -0.01105
    3 Bend                     2     1     3               104.50003    0.00067
 
  no constraints, skipping   0.000000000000000E+000
  no constraints, skipping   0.000000000000000E+000
  no constraints, skipping   0.000000000000000E+000
  no constraints, skipping   0.000000000000000E+000
 
                                 NWChem DFT Module
                                 -----------------
 
 
                           water opt+freq (B3LYP/6-31g*)
 
 


 Summary of "ao basis" -> "ao basis" (cartesian)
 ------------------------------------------------------------------------------
       Tag                 Description            Shells   Functions and Types
 ---------------- ------------------------------  ------  ---------------------
 O                           6-31g*                  6       15   3s2p1d
 H                           6-31g*                  2        2   2s


      Symmetry analysis of basis
      --------------------------
 
        a1         10
        a2          1
        b1          5
        b2          3
 
  Caching 1-el integrals 
 
            General Information
            -------------------
          SCF calculation type: DFT
          Wavefunction type:  closed shell.
          No. of atoms     :     3
          No. of electrons :    10
           Alpha electrons :     5
            Beta electrons :     5
          Charge           :     0
          Spin multiplicity:     1
          Use of symmetry is: on ; symmetry adaption is: on 
          Maximum number of iterations:  50
          AO basis - number of functions:    19
                     number of shells:    10
          Convergence on energy requested:  1.00D-06
          Convergence on density requested:  1.00D-05
          Convergence on gradient requested:  5.00D-04
 
              XC Information
              --------------
                         B3LYP Method XC Potential
                     Hartree-Fock (Exact) Exchange  0.200          
                        Slater Exchange Functional  0.800 local    
                    Becke 1988 Exchange Functional  0.720 non-local
              Lee-Yang-Parr Correlation Functional  0.810          
                  VWN I RPA Correlation Functional  0.190 local    
 
             Grid Information
             ----------------
          Grid used for XC integration:  xfine     
          Radial quadrature: Mura-Knowles        
          Angular quadrature: Lebedev. 
          Tag              B.-S. Rad. Rad. Pts. Rad. Cut. Ang. Pts.
          ---              ---------- --------- --------- ---------
          O                   0.60      100           5.0      1454
          H                   0.35      100           7.0      1202
          Grid pruning is: on 
          Number of quadrature shells:   200
          Spatial weights used:  Erf1
 
          Convergence Information
          -----------------------
          Convergence aids based upon iterative change in 
          total energy or number of iterations. 
          Levelshifting, if invoked, occurs when the 
          HOMO/LUMO gap drops below (HL_TOL):  1.00D-02
          DIIS, if invoked, will attempt to extrapolate 
          using up to (NFOCK): 10 stored Fock matrices.

                    Damping( 0%)  Levelshifting(0.5)       DIIS
                  --------------- ------------------- ---------------
          dE  on:    start            ASAP                start   
          dE off:    2 iters         50 iters            50 iters 

 
      Screening Tolerance Information
      -------------------------------
          Density screening/tol_rho:  1.00D-10
          AO Gaussian exp screening on grid/accAOfunc:  14
          CD Gaussian exp screening on grid/accCDfunc:  20
          XC Gaussian exp screening on grid/accXCfunc:  20
          Schwarz screening/accCoul:  1.00D-08


 Loading old vectors from job with title :

water opt+freq (B3LYP/6-31g*)

 
      Symmetry analysis of molecular orbitals - initial
      -------------------------------------------------
 
  Numbering of irreducible representations: 
 
     1 a1          2 a2          3 b1          4 b2      
 
  Orbital symmetries:
 
     1 a1          2 a1          3 b1          4 a1          5 b2      
     6 a1          7 b1          8 b1          9 a1         10 b2      
    11 a1         12 b1         13 a1         14 a1         15 a2      
 
   Time after variat. SCF:      6.2
   Time prior to 1st pass:      6.2

 #quartets = 1.009D+03 #integrals = 5.756D+03 #direct =  0.0% #cached =100.0%


 Integral file          = ./water.aoints.00
 Record size in doubles =  65536        No. of integs per rec  =  43688
 Max. records in memory =      3        Max. records in file   = 224870
 No. of bits per label  =      8        No. of bits per value  =     64


File balance: exchanges=     0  moved=     0  time=   0.0


 Grid_pts file          = ./water.gridpts.00
 Record size in doubles =  12289        No. of grid_pts per rec  =   3070
 Max. records in memory =      7        Max. recs in file   =   1199213


           Memory utilization after 1st SCF pass: 
           Heap Space remaining (MW):       25.93            25930106
          Stack Space remaining (MW):       26.21            26214164

   convergence    iter        energy       DeltaE   RMS-Dens  Diis-err    time
 ---------------- ----- ----------------- --------- --------- ---------  ------
 d= 0,ls=0.0,diis     1    -76.4088578310 -8.55D+01  1.64D-03  5.88D-04     7.7
 d= 0,ls=0.0,diis     2    -76.4089074884 -4.97D-05  6.68D-04  5.33D-04     7.7
 d= 0,ls=0.0,diis     3    -76.4089506940 -4.32D-05  1.66D-04  3.35D-05     8.3
 d= 0,ls=0.0,diis     4    -76.4089537209 -3.03D-06  1.31D-05  2.44D-07     8.4
 d= 0,ls=0.0,diis     5    -76.4089537445 -2.36D-08  2.01D-06  6.58D-10     9.5


         Total DFT energy =      -76.408953744499
      One electron energy =     -122.936548287568
           Coulomb energy =       46.783142754003
    Exchange-Corr. energy =       -9.343322920099
 Nuclear repulsion energy =        9.087774709165

 Numeric. integr. density =       10.000000013853

     Total iterative time =      3.4s


 
                  Occupations of the irreducible representations
                  ----------------------------------------------
 
                     irrep           alpha         beta
                     --------     --------     --------
                     a1                3.0          3.0
                     a2                0.0          0.0
                     b1                1.0          1.0
                     b2                1.0          1.0
 
 
                       DFT Final Molecular Orbital Analysis
                       ------------------------------------
 
 Vector    1  Occ=2.000000D+00  E=-1.913812D+01  Symmetry=a1
              MO Center=  3.2D-19, -2.3D-27, -1.3D-01, r^2= 1.5D-02
   Bfn.  Coefficient  Atom+Function         Bfn.  Coefficient  Atom+Function  
  ----- ------------  ---------------      ----- ------------  ---------------
     1      0.992860  1 O  s                  2      0.026224  1 O  s          
 
 Vector    2  Occ=2.000000D+00  E=-9.978285D-01  Symmetry=a1
              MO Center=  3.4D-16,  1.8D-16,  8.2D-02, r^2= 5.1D-01
   Bfn.  Coefficient  Atom+Function         Bfn.  Coefficient  Atom+Function  
  ----- ------------  ---------------      ----- ------------  ---------------
     2      0.469234  1 O  s                  6      0.439558  1 O  s          
     1     -0.209513  1 O  s                 16      0.139126  2 H  s          
    18      0.139126  3 H  s                  5      0.127608  1 O  pz         
     9      0.060616  1 O  pz         
 
 Vector    3  Occ=2.000000D+00  E=-5.172741D-01  Symmetry=b1
              MO Center= -4.2D-16, -8.4D-21,  1.0D-01, r^2= 7.9D-01
   Bfn.  Coefficient  Atom+Function         Bfn.  Coefficient  Atom+Function  
  ----- ------------  ---------------      ----- ------------  ---------------
     3      0.517401  1 O  px                 7      0.269691  1 O  px         
    16     -0.237477  2 H  s                 18      0.237477  3 H  s          
    17     -0.141865  2 H  s                 19      0.141865  3 H  s          
    12      0.071445  1 O  dxz        
 
 Vector    4  Occ=2.000000D+00  E=-3.720639D-01  Symmetry=a1
              MO Center=  1.8D-17, -1.6D-18, -2.0D-01, r^2= 7.0D-01
   Bfn.  Coefficient  Atom+Function         Bfn.  Coefficient  Atom+Function  
  ----- ------------  ---------------      ----- ------------  ---------------
     5      0.551916  1 O  pz                 6     -0.410248  1 O  s          
     9      0.372315  1 O  pz                 2     -0.177143  1 O  s          
    16      0.143665  2 H  s                 18      0.143665  3 H  s          
    17      0.114250  2 H  s                 19      0.114250  3 H  s          
     1      0.088045  1 O  s                 15      0.052400  1 O  dzz        
 
 Vector    5  Occ=2.000000D+00  E=-2.911653D-01  Symmetry=b2
              MO Center= -7.0D-17, -2.0D-15, -1.0D-01, r^2= 6.0D-01
   Bfn.  Coefficient  Atom+Function         Bfn.  Coefficient  Atom+Function  
  ----- ------------  ---------------      ----- ------------  ---------------
     4      0.644570  1 O  py                 8      0.506057  1 O  py         
    14      0.061348  1 O  dyz        
 
 Vector    6  Occ=0.000000D+00  E= 6.261963D-02  Symmetry=a1
              MO Center= -3.8D-15,  2.5D-15,  6.2D-01, r^2= 2.4D+00
   Bfn.  Coefficient  Atom+Function         Bfn.  Coefficient  Atom+Function  
  ----- ------------  ---------------      ----- ------------  ---------------
     6      1.258068  1 O  s                 17     -0.969154  2 H  s          
    19     -0.969154  3 H  s                  9      0.477203  1 O  pz         
     5      0.280535  1 O  pz                 2      0.119358  1 O  s          
     1     -0.100678  1 O  s                 16     -0.096356  2 H  s          
    18     -0.096356  3 H  s                 13     -0.058040  1 O  dyy        
 
 Vector    7  Occ=0.000000D+00  E= 1.481516D-01  Symmetry=b1
              MO Center=  3.5D-15,  2.5D-20,  5.6D-01, r^2= 2.5D+00
   Bfn.  Coefficient  Atom+Function         Bfn.  Coefficient  Atom+Function  
  ----- ------------  ---------------      ----- ------------  ---------------
    17      1.277715  2 H  s                 19     -1.277715  3 H  s          
     7      0.759001  1 O  px                 3      0.413430  1 O  px         
    16      0.107232  2 H  s                 18     -0.107232  3 H  s          
    12      0.031957  1 O  dxz        
 
 Vector    8  Occ=0.000000D+00  E= 7.727544D-01  Symmetry=b1
              MO Center=  9.1D-16, -2.7D-17,  1.5D-01, r^2= 1.6D+00
   Bfn.  Coefficient  Atom+Function         Bfn.  Coefficient  Atom+Function  
  ----- ------------  ---------------      ----- ------------  ---------------
    16      0.840296  2 H  s                 18     -0.840296  3 H  s          
    17     -0.654882  2 H  s                 19      0.654882  3 H  s          
     7      0.430592  1 O  px                12     -0.339743  1 O  dxz        
     3      0.172679  1 O  px         
 
 Vector    9  Occ=0.000000D+00  E= 8.607593D-01  Symmetry=a1
              MO Center= -1.4D-15,  1.5D-15,  2.1D-01, r^2= 1.3D+00
   Bfn.  Coefficient  Atom+Function         Bfn.  Coefficient  Atom+Function  
  ----- ------------  ---------------      ----- ------------  ---------------
    16     -0.713925  2 H  s                 18     -0.713925  3 H  s          
     5      0.705029  1 O  pz                17      0.553208  2 H  s          
    19      0.553208  3 H  s                  9     -0.379136  1 O  pz         
    10     -0.153385  1 O  dxx                6     -0.139070  1 O  s          
     2      0.138153  1 O  s                 13      0.120338  1 O  dyy        
 
 Vector   10  Occ=0.000000D+00  E= 8.907991D-01  Symmetry=b2
              MO Center= -8.8D-17, -9.4D-15, -1.2D-01, r^2= 1.1D+00
   Bfn.  Coefficient  Atom+Function         Bfn.  Coefficient  Atom+Function  
  ----- ------------  ---------------      ----- ------------  ---------------
     8     -1.038619  1 O  py                 4      0.959440  1 O  py         
    14     -0.028386  1 O  dyz        
 
 Vector   11  Occ=0.000000D+00  E= 8.950284D-01  Symmetry=a1
              MO Center= -2.3D-16,  7.1D-15, -3.3D-01, r^2= 1.4D+00
   Bfn.  Coefficient  Atom+Function         Bfn.  Coefficient  Atom+Function  
  ----- ------------  ---------------      ----- ------------  ---------------
     6      1.406499  1 O  s                  2     -0.834166  1 O  s          
     9     -0.829945  1 O  pz                 5      0.561913  1 O  pz         
    16      0.465000  2 H  s                 18      0.465000  3 H  s          
    17     -0.370684  2 H  s                 19     -0.370684  3 H  s          
    13     -0.326530  1 O  dyy               15     -0.276721  1 O  dzz        
 
 Vector   12  Occ=0.000000D+00  E= 1.065863D+00  Symmetry=b1
              MO Center=  2.0D-16, -5.9D-32, -1.1D-01, r^2= 1.5D+00
   Bfn.  Coefficient  Atom+Function         Bfn.  Coefficient  Atom+Function  
  ----- ------------  ---------------      ----- ------------  ---------------
     7      1.628650  1 O  px                 3     -0.989222  1 O  px         
    17      0.926477  2 H  s                 19     -0.926477  3 H  s          
    12     -0.028040  1 O  dxz        
 
 Vector   13  Occ=0.000000D+00  E= 1.193165D+00  Symmetry=a1
              MO Center=  2.7D-16,  1.0D-17,  3.6D-01, r^2= 1.4D+00
   Bfn.  Coefficient  Atom+Function         Bfn.  Coefficient  Atom+Function  
  ----- ------------  ---------------      ----- ------------  ---------------
     6      3.598127  1 O  s                  2     -1.458408  1 O  s          
     9      1.104394  1 O  pz                17     -0.773938  2 H  s          
    19     -0.773938  3 H  s                 10     -0.657539  1 O  dxx        
     5     -0.402514  1 O  pz                15     -0.393158  1 O  dzz        
    16     -0.350911  2 H  s                 18     -0.350911  3 H  s          
 
 Vector   14  Occ=0.000000D+00  E= 1.729316D+00  Symmetry=a1
              MO Center=  6.4D-18, -1.3D-17, -1.8D-01, r^2= 6.2D-01
   Bfn.  Coefficient  Atom+Function         Bfn.  Coefficient  Atom+Function  
  ----- ------------  ---------------      ----- ------------  ---------------
    15      1.007196  1 O  dzz               10     -0.594702  1 O  dxx        
    13     -0.345316  1 O  dyy                6     -0.252646  1 O  s          
     9     -0.143566  1 O  pz                 2      0.090186  1 O  s          
    16      0.081878  2 H  s                 18      0.081878  3 H  s          
    17      0.042260  2 H  s                 19      0.042260  3 H  s          
 
 Vector   15  Occ=0.000000D+00  E= 1.746311D+00  Symmetry=a2
              MO Center=  1.6D-16,  2.7D-17, -1.3D-01, r^2= 6.1D-01
   Bfn.  Coefficient  Atom+Function         Bfn.  Coefficient  Atom+Function  
  ----- ------------  ---------------      ----- ------------  ---------------
    11      1.732051  1 O  dxy        
 
 Vector   16  Occ=0.000000D+00  E= 1.779892D+00  Symmetry=b2
              MO Center= -4.0D-18,  1.3D-17, -1.5D-01, r^2= 6.1D-01
   Bfn.  Coefficient  Atom+Function         Bfn.  Coefficient  Atom+Function  
  ----- ------------  ---------------      ----- ------------  ---------------
    14      1.730731  1 O  dyz                8     -0.034972  1 O  py         
 
 Vector   17  Occ=0.000000D+00  E= 2.280631D+00  Symmetry=a1
              MO Center=  9.3D-17,  2.6D-17, -8.3D-03, r^2= 8.3D-01
   Bfn.  Coefficient  Atom+Function         Bfn.  Coefficient  Atom+Function  
  ----- ------------  ---------------      ----- ------------  ---------------
     6      1.538007  1 O  s                 13     -1.130640  1 O  dyy        
    16     -0.812172  2 H  s                 18     -0.812172  3 H  s          
     9      0.738175  1 O  pz                10      0.737578  1 O  dxx        
     2     -0.514537  1 O  s                 17     -0.141205  2 H  s          
    19     -0.141205  3 H  s                 15      0.069026  1 O  dzz        
 
 Vector   18  Occ=0.000000D+00  E= 2.577289D+00  Symmetry=b1
              MO Center=  4.1D-18, -4.3D-22, -6.9D-02, r^2= 8.6D-01
   Bfn.  Coefficient  Atom+Function         Bfn.  Coefficient  Atom+Function  
  ----- ------------  ---------------      ----- ------------  ---------------
    12      2.203300  1 O  dxz               16      0.923766  2 H  s          
    18     -0.923766  3 H  s                  7      0.843501  1 O  px         
    17     -0.049794  2 H  s                 19      0.049794  3 H  s          
     3     -0.037018  1 O  px         
 
 Vector   19  Occ=0.000000D+00  E= 3.552057D+00  Symmetry=a1
              MO Center= -2.8D-16, -1.0D-19, -1.2D-01, r^2= 1.0D+00
   Bfn.  Coefficient  Atom+Function         Bfn.  Coefficient  Atom+Function  
  ----- ------------  ---------------      ----- ------------  ---------------
     6      3.689842  1 O  s                 13     -1.578738  1 O  dyy        
    15     -1.549766  1 O  dzz               10     -1.526205  1 O  dxx        
    17     -0.554703  2 H  s                 19     -0.554703  3 H  s          
     1     -0.467963  1 O  s                  9      0.333701  1 O  pz         
     2      0.286631  1 O  s                  5     -0.116548  1 O  pz         
 

 center of mass
 --------------
 x =   0.00000000 y =   0.00000000 z =  -0.11032264

 moments of inertia (a.u.)
 ------------------
           2.287507953679           0.000000000000           0.000000000000
           0.000000000000           6.466056100277           0.000000000000
           0.000000000000           0.000000000000           4.178548146598
 
     Multipole analysis of the density
     ---------------------------------
 
     L   x y z        total         alpha         beta         nuclear
     -   - - -        -----         -----         ----         -------
     0   0 0 0     -0.000000     -5.000000     -5.000000     10.000000
 
     1   1 0 0     -0.000000     -0.000000     -0.000000      0.000000
     1   0 1 0      0.000000      0.000000      0.000000      0.000000
     1   0 0 1      0.823921      0.465700      0.465700     -0.107480
 
     2   2 0 0     -3.184475     -3.665290     -3.665290      4.146105
     2   1 1 0      0.000000      0.000000      0.000000      0.000000
     2   1 0 1      0.000000      0.000000      0.000000      0.000000
     2   0 2 0     -5.355836     -2.677918     -2.677918      0.000000
     2   0 1 1      0.000000      0.000000      0.000000      0.000000
     2   0 0 2     -4.472380     -3.259078     -3.259078      2.045777
 

 Parallel integral file used      19 records with       0 large values

 Line search: 
     step= 1.00 grad=-5.0D-04 hess= 2.5D-04 energy=    -76.408954 mode=accept  
 new step= 1.00                   predicted energy=    -76.408954
  no constraints, skipping   0.000000000000000E+000
  no constraints, skipping   0.000000000000000E+000
  no constraints, skipping   0.000000000000000E+000
  no constraints, skipping   0.000000000000000E+000

          --------
          Step   1
          --------
 
 
                         Geometry "geometry" -> "geometry"
                         ---------------------------------
 
 Output coordinates in angstroms (scale by  1.889725989 to convert to a.u.)
 
  No.       Tag          Charge          X              Y              Z
 ---- ---------------- ---------- -------------- -------------- --------------
    1 O                    8.0000     0.00000000     0.00000000    -0.12532791
    2 H                    1.0000    -0.76191462     0.00000000     0.47287375
    3 H                    1.0000     0.76191462     0.00000000     0.47287375
 
      Atomic Mass 
      ----------- 
 
      O                 15.994910
      H                  1.007825
 

 Effective nuclear repulsion energy (a.u.)       9.0877747092

            Nuclear Dipole moment (a.u.) 
            ----------------------------
        X                 Y               Z
 ---------------- ---------------- ----------------
     0.0000000000     0.0000000000    -0.1074796154
 
      Symmetry information
      --------------------
 
 Group name             C2v       
 Group number             16
 Group order               4
 No. of unique centers     2
 
      Symmetry unique atoms
 
     1    2
 
 
                                 NWChem DFT Module
                                 -----------------
 
 
                           water opt+freq (B3LYP/6-31g*)
 
 


 Summary of "ao basis" -> "ao basis" (cartesian)
 ------------------------------------------------------------------------------
       Tag                 Description            Shells   Functions and Types
 ---------------- ------------------------------  ------  ---------------------
 O                           6-31g*                  6       15   3s2p1d
 H                           6-31g*                  2        2   2s


      Symmetry analysis of basis
      --------------------------
 
        a1         10
        a2          1
        b1          5
        b2          3
 

  The DFT is already converged 

         Total DFT energy =    -76.408953744499

 
            General Information
            -------------------
          SCF calculation type: DFT
          Wavefunction type:  closed shell.
          No. of atoms     :     3
          No. of electrons :    10
           Alpha electrons :     5
            Beta electrons :     5
          Charge           :     0
          Spin multiplicity:     1
          Use of symmetry is: on ; symmetry adaption is: on 
          Maximum number of iterations:  50
          AO basis - number of functions:    19
                     number of shells:    10
          Convergence on energy requested:  1.00D-06
          Convergence on density requested:  1.00D-05
          Convergence on gradient requested:  5.00D-04
 
              XC Information
              --------------
                         B3LYP Method XC Potential
                     Hartree-Fock (Exact) Exchange  0.200          
                        Slater Exchange Functional  0.800 local    
                    Becke 1988 Exchange Functional  0.720 non-local
              Lee-Yang-Parr Correlation Functional  0.810          
                  VWN I RPA Correlation Functional  0.190 local    
 
             Grid Information
             ----------------
          Grid used for XC integration:  xfine     
          Radial quadrature: Mura-Knowles        
          Angular quadrature: Lebedev. 
          Tag              B.-S. Rad. Rad. Pts. Rad. Cut. Ang. Pts.
          ---              ---------- --------- --------- ---------
          O                   0.60      100           5.0      1454
          H                   0.35      100           7.0      1202
          Grid pruning is: on 
          Number of quadrature shells:   200
          Spatial weights used:  Erf1
 
          Convergence Information
          -----------------------
          Convergence aids based upon iterative change in 
          total energy or number of iterations. 
          Levelshifting, if invoked, occurs when the 
          HOMO/LUMO gap drops below (HL_TOL):  1.00D-02
          DIIS, if invoked, will attempt to extrapolate 
          using up to (NFOCK): 10 stored Fock matrices.

                    Damping( 0%)  Levelshifting(0.5)       DIIS
                  --------------- ------------------- ---------------
          dE  on:    start            ASAP                start   
          dE off:    2 iters         50 iters            50 iters 

 
      Screening Tolerance Information
      -------------------------------
          Density screening/tol_rho:  1.00D-10
          AO Gaussian exp screening on grid/accAOfunc:  14
          CD Gaussian exp screening on grid/accCDfunc:  20
          XC Gaussian exp screening on grid/accXCfunc:  20
          Schwarz screening/accCoul:  1.00D-08

 
 
                            NWChem DFT Gradient Module
                            --------------------------
 
 
                           water opt+freq (B3LYP/6-31g*)
 
 

  charge          =   0.00
  wavefunction    = closed shell

  Using symmetry


                         DFT ENERGY GRADIENTS

    atom               coordinates                        gradient
                 x          y          z           x          y          z
   1 O       0.000000   0.000000  -0.236835    0.000000   0.000000   0.000202
   2 H      -1.439810   0.000000   0.893602   -0.000075   0.000000  -0.000101
   3 H       1.439810   0.000000   0.893602    0.000075   0.000000  -0.000101
 
                 ----------------------------------------
                 |  Time  |  1-e(secs)   |  2-e(secs)   |
                 ----------------------------------------
                 |  CPU   |       0.00   |       0.00   |
                 ----------------------------------------
                 |  WALL  |       0.00   |       0.00   |
                 ----------------------------------------
  no constraints, skipping   0.000000000000000E+000

  Step       Energy      Delta E   Gmax     Grms     Xrms     Xmax   Walltime
  ---- ---------------- -------- -------- -------- -------- -------- --------
@    1     -76.40895374 -2.5D-04  0.00012  0.00007  0.00771  0.01541      9.6
                                     ok       ok                    



                                Z-matrix (autoz)
                                -------- 

 Units are Angstrom for bonds and degrees for angles
 
      Type          Name      I     J     K     L     M      Value     Gradient
      ----------- --------  ----- ----- ----- ----- ----- ---------- ----------
    1 Stretch                  1     2                       0.96869   -0.00000
    2 Stretch                  1     3                       0.96869   -0.00000
    3 Bend                     2     1     3               103.72699    0.00012
 
  no constraints, skipping   0.000000000000000E+000
  no constraints, skipping   0.000000000000000E+000
  no constraints, skipping   0.000000000000000E+000
 
                                 NWChem DFT Module
                                 -----------------
 
 
                           water opt+freq (B3LYP/6-31g*)
 
 


 Summary of "ao basis" -> "ao basis" (cartesian)
 ------------------------------------------------------------------------------
       Tag                 Description            Shells   Functions and Types
 ---------------- ------------------------------  ------  ---------------------
 O                           6-31g*                  6       15   3s2p1d
 H                           6-31g*                  2        2   2s


      Symmetry analysis of basis
      --------------------------
 
        a1         10
        a2          1
        b1          5
        b2          3
 
  Caching 1-el integrals 
 
            General Information
            -------------------
          SCF calculation type: DFT
          Wavefunction type:  closed shell.
          No. of atoms     :     3
          No. of electrons :    10
           Alpha electrons :     5
            Beta electrons :     5
          Charge           :     0
          Spin multiplicity:     1
          Use of symmetry is: on ; symmetry adaption is: on 
          Maximum number of iterations:  50
          AO basis - number of functions:    19
                     number of shells:    10
          Convergence on energy requested:  1.00D-06
          Convergence on density requested:  1.00D-05
          Convergence on gradient requested:  5.00D-04
 
              XC Information
              --------------
                         B3LYP Method XC Potential
                     Hartree-Fock (Exact) Exchange  0.200          
                        Slater Exchange Functional  0.800 local    
                    Becke 1988 Exchange Functional  0.720 non-local
              Lee-Yang-Parr Correlation Functional  0.810          
                  VWN I RPA Correlation Functional  0.190 local    
 
             Grid Information
             ----------------
          Grid used for XC integration:  xfine     
          Radial quadrature: Mura-Knowles        
          Angular quadrature: Lebedev. 
          Tag              B.-S. Rad. Rad. Pts. Rad. Cut. Ang. Pts.
          ---              ---------- --------- --------- ---------
          O                   0.60      100           5.0      1454
          H                   0.35      100           7.0      1202
          Grid pruning is: on 
          Number of quadrature shells:   200
          Spatial weights used:  Erf1
 
          Convergence Information
          -----------------------
          Convergence aids based upon iterative change in 
          total energy or number of iterations. 
          Levelshifting, if invoked, occurs when the 
          HOMO/LUMO gap drops below (HL_TOL):  1.00D-02
          DIIS, if invoked, will attempt to extrapolate 
          using up to (NFOCK): 10 stored Fock matrices.

                    Damping( 0%)  Levelshifting(0.5)       DIIS
                  --------------- ------------------- ---------------
          dE  on:    start            ASAP                start   
          dE off:    2 iters         50 iters            50 iters 

 
      Screening Tolerance Information
      -------------------------------
          Density screening/tol_rho:  1.00D-10
          AO Gaussian exp screening on grid/accAOfunc:  14
          CD Gaussian exp screening on grid/accCDfunc:  20
          XC Gaussian exp screening on grid/accXCfunc:  20
          Schwarz screening/accCoul:  1.00D-08


 Loading old vectors from job with title :

water opt+freq (B3LYP/6-31g*)

 
      Symmetry analysis of molecular orbitals - initial
      -------------------------------------------------
 
  Numbering of irreducible representations: 
 
     1 a1          2 a2          3 b1          4 b2      
 
  Orbital symmetries:
 
     1 a1          2 a1          3 b1          4 a1          5 b2      
     6 a1          7 b1          8 b1          9 a1         10 b2      
    11 a1         12 b1         13 a1         14 a1         15 a2      
 
   Time after variat. SCF:     10.2
   Time prior to 1st pass:     10.2

 #quartets = 1.009D+03 #integrals = 5.756D+03 #direct =  0.0% #cached =100.0%


 Integral file          = ./water.aoints.00
 Record size in doubles =  65536        No. of integs per rec  =  43688
 Max. records in memory =      3        Max. records in file   = 224870
 No. of bits per label  =      8        No. of bits per value  =     64


File balance: exchanges=     0  moved=     0  time=   0.0


 Grid_pts file          = ./water.gridpts.00
 Record size in doubles =  12289        No. of grid_pts per rec  =   3070
 Max. records in memory =      7        Max. recs in file   =   1199213


           Memory utilization after 1st SCF pass: 
           Heap Space remaining (MW):       25.93            25930106
          Stack Space remaining (MW):       26.21            26214164

   convergence    iter        energy       DeltaE   RMS-Dens  Diis-err    time
 ---------------- ----- ----------------- --------- --------- ---------  ------
 d= 0,ls=0.0,diis     1    -76.4089538342 -8.55D+01  3.94D-05  3.84D-07    11.3
 d= 0,ls=0.0,diis     2    -76.4089538940 -5.98D-08  9.04D-06  3.29D-08    11.4


         Total DFT energy =      -76.408953894036
      One electron energy =     -122.935478890251
           Coulomb energy =       46.782227269530
    Exchange-Corr. energy =       -9.343230151291
 Nuclear repulsion energy =        9.087527877976

 Numeric. integr. density =       10.000000013782

     Total iterative time =      1.2s


 
                  Occupations of the irreducible representations
                  ----------------------------------------------
 
                     irrep           alpha         beta
                     --------     --------     --------
                     a1                3.0          3.0
                     a2                0.0          0.0
                     b1                1.0          1.0
                     b2                1.0          1.0
 
 
                       DFT Final Molecular Orbital Analysis
                       ------------------------------------
 
 Vector    1  Occ=2.000000D+00  E=-1.913824D+01  Symmetry=a1
              MO Center= -5.2D-20, -5.5D-26, -1.3D-01, r^2= 1.5D-02
   Bfn.  Coefficient  Atom+Function         Bfn.  Coefficient  Atom+Function  
  ----- ------------  ---------------      ----- ------------  ---------------
     1      0.992860  1 O  s                  2      0.026224  1 O  s          
 
 Vector    2  Occ=2.000000D+00  E=-9.978964D-01  Symmetry=a1
              MO Center= -1.7D-17, -3.2D-17,  8.2D-02, r^2= 5.1D-01
   Bfn.  Coefficient  Atom+Function         Bfn.  Coefficient  Atom+Function  
  ----- ------------  ---------------      ----- ------------  ---------------
     2      0.469224  1 O  s                  6      0.439534  1 O  s          
     1     -0.209504  1 O  s                 16      0.139134  2 H  s          
    18      0.139134  3 H  s                  5      0.127682  1 O  pz         
     9      0.060652  1 O  pz         
 
 Vector    3  Occ=2.000000D+00  E=-5.171465D-01  Symmetry=b1
              MO Center=  9.5D-17,  7.3D-20,  1.0D-01, r^2= 7.9D-01
   Bfn.  Coefficient  Atom+Function         Bfn.  Coefficient  Atom+Function  
  ----- ------------  ---------------      ----- ------------  ---------------
     3      0.517449  1 O  px                 7      0.269768  1 O  px         
    16     -0.237431  2 H  s                 18      0.237431  3 H  s          
    17     -0.141947  2 H  s                 19      0.141947  3 H  s          
    12      0.071483  1 O  dxz        
 
 Vector    4  Occ=2.000000D+00  E=-3.722392D-01  Symmetry=a1
              MO Center=  7.4D-17, -4.8D-17, -2.0D-01, r^2= 7.0D-01
   Bfn.  Coefficient  Atom+Function         Bfn.  Coefficient  Atom+Function  
  ----- ------------  ---------------      ----- ------------  ---------------
     5      0.551827  1 O  pz                 6     -0.410403  1 O  s          
     9      0.372141  1 O  pz                 2     -0.177254  1 O  s          
    16      0.143733  2 H  s                 18      0.143733  3 H  s          
    17      0.114275  2 H  s                 19      0.114275  3 H  s          
     1      0.088094  1 O  s                 15      0.052419  1 O  dzz        
 
 Vector    5  Occ=2.000000D+00  E=-2.912124D-01  Symmetry=b2
              MO Center=  1.2D-16, -2.5D-16, -1.1D-01, r^2= 6.0D-01
   Bfn.  Coefficient  Atom+Function         Bfn.  Coefficient  Atom+Function  
  ----- ------------  ---------------      ----- ------------  ---------------
     4      0.644591  1 O  py                 8      0.506033  1 O  py         
    14      0.061374  1 O  dyz        
 
 Vector    6  Occ=0.000000D+00  E= 6.259206D-02  Symmetry=a1
              MO Center= -5.4D-15,  1.9D-16,  6.2D-01, r^2= 2.4D+00
   Bfn.  Coefficient  Atom+Function         Bfn.  Coefficient  Atom+Function  
  ----- ------------  ---------------      ----- ------------  ---------------
     6      1.257747  1 O  s                 17     -0.969026  2 H  s          
    19     -0.969026  3 H  s                  9      0.477458  1 O  pz         
     5      0.280683  1 O  pz                 2      0.119310  1 O  s          
     1     -0.100642  1 O  s                 16     -0.096291  2 H  s          
    18     -0.096291  3 H  s                 13     -0.058037  1 O  dyy        
 
 Vector    7  Occ=0.000000D+00  E= 1.481090D-01  Symmetry=b1
              MO Center=  5.1D-15, -4.7D-19,  5.6D-01, r^2= 2.5D+00
   Bfn.  Coefficient  Atom+Function         Bfn.  Coefficient  Atom+Function  
  ----- ------------  ---------------      ----- ------------  ---------------
    17      1.277722  2 H  s                 19     -1.277722  3 H  s          
     7      0.758780  1 O  px                 3      0.413466  1 O  px         
    16      0.107367  2 H  s                 18     -0.107367  3 H  s          
    12      0.031925  1 O  dxz        
 
 Vector    8  Occ=0.000000D+00  E= 7.724495D-01  Symmetry=b1
              MO Center= -8.8D-16,  4.3D-17,  1.5D-01, r^2= 1.6D+00
   Bfn.  Coefficient  Atom+Function         Bfn.  Coefficient  Atom+Function  
  ----- ------------  ---------------      ----- ------------  ---------------
    16      0.840207  2 H  s                 18     -0.840207  3 H  s          
    17     -0.655382  2 H  s                 19      0.655382  3 H  s          
     7      0.430393  1 O  px                12     -0.339540  1 O  dxz        
     3      0.172241  1 O  px         
 
 Vector    9  Occ=0.000000D+00  E= 8.609041D-01  Symmetry=a1
              MO Center=  7.4D-17, -1.3D-16,  2.1D-01, r^2= 1.3D+00
   Bfn.  Coefficient  Atom+Function         Bfn.  Coefficient  Atom+Function  
  ----- ------------  ---------------      ----- ------------  ---------------
    16     -0.711648  2 H  s                 18     -0.711648  3 H  s          
     5      0.707953  1 O  pz                17      0.552006  2 H  s          
    19      0.552006  3 H  s                  9     -0.383436  1 O  pz         
    10     -0.153540  1 O  dxx                2      0.135365  1 O  s          
     6     -0.135112  1 O  s                 13      0.119214  1 O  dyy        
 
 Vector   10  Occ=0.000000D+00  E= 8.907606D-01  Symmetry=b2
              MO Center= -1.5D-17,  5.4D-15, -1.2D-01, r^2= 1.1D+00
   Bfn.  Coefficient  Atom+Function         Bfn.  Coefficient  Atom+Function  
  ----- ------------  ---------------      ----- ------------  ---------------
     8     -1.038630  1 O  py                 4      0.959426  1 O  py         
    14     -0.028415  1 O  dyz        
 
 Vector   11  Occ=0.000000D+00  E= 8.950767D-01  Symmetry=a1
              MO Center= -2.4D-16, -5.3D-15, -3.3D-01, r^2= 1.4D+00
   Bfn.  Coefficient  Atom+Function         Bfn.  Coefficient  Atom+Function  
  ----- ------------  ---------------      ----- ------------  ---------------
     6      1.410007  1 O  s                  2     -0.836090  1 O  s          
     9     -0.827459  1 O  pz                 5      0.558236  1 O  pz         
    16      0.467968  2 H  s                 18      0.467968  3 H  s          
    17     -0.373546  2 H  s                 19     -0.373546  3 H  s          
    13     -0.327489  1 O  dyy               15     -0.276897  1 O  dzz        
 
 Vector   12  Occ=0.000000D+00  E= 1.065763D+00  Symmetry=b1
              MO Center=  6.5D-16,  1.2D-17, -1.1D-01, r^2= 1.5D+00
   Bfn.  Coefficient  Atom+Function         Bfn.  Coefficient  Atom+Function  
  ----- ------------  ---------------      ----- ------------  ---------------
     7      1.628105  1 O  px                 3     -0.989218  1 O  px         
    17      0.926555  2 H  s                 19     -0.926555  3 H  s          
    12     -0.027776  1 O  dxz        
 
 Vector   13  Occ=0.000000D+00  E= 1.193427D+00  Symmetry=a1
              MO Center= -5.7D-16,  5.9D-17,  3.6D-01, r^2= 1.4D+00
   Bfn.  Coefficient  Atom+Function         Bfn.  Coefficient  Atom+Function  
  ----- ------------  ---------------      ----- ------------  ---------------
     6      3.596678  1 O  s                  2     -1.457471  1 O  s          
     9      1.105622  1 O  pz                17     -0.773168  2 H  s          
    19     -0.773168  3 H  s                 10     -0.657522  1 O  dxx        
     5     -0.402552  1 O  pz                15     -0.393276  1 O  dzz        
    16     -0.352102  2 H  s                 18     -0.352102  3 H  s          
 
 Vector   14  Occ=0.000000D+00  E= 1.729086D+00  Symmetry=a1
              MO Center= -3.3D-17,  4.0D-17, -1.8D-01, r^2= 6.2D-01
   Bfn.  Coefficient  Atom+Function         Bfn.  Coefficient  Atom+Function  
  ----- ------------  ---------------      ----- ------------  ---------------
    15      1.006955  1 O  dzz               10     -0.595899  1 O  dxx        
    13     -0.343938  1 O  dyy                6     -0.252406  1 O  s          
     9     -0.143556  1 O  pz                 2      0.090117  1 O  s          
    16      0.081724  2 H  s                 18      0.081724  3 H  s          
    17      0.042261  2 H  s                 19      0.042261  3 H  s          
 
 Vector   15  Occ=0.000000D+00  E= 1.746360D+00  Symmetry=a2
              MO Center=  2.9D-16, -5.4D-17, -1.3D-01, r^2= 6.1D-01
   Bfn.  Coefficient  Atom+Function         Bfn.  Coefficient  Atom+Function  
  ----- ------------  ---------------      ----- ------------  ---------------
    11      1.732051  1 O  dxy        
 
 Vector   16  Occ=0.000000D+00  E= 1.779791D+00  Symmetry=b2
              MO Center= -3.9D-16,  8.5D-17, -1.5D-01, r^2= 6.1D-01
   Bfn.  Coefficient  Atom+Function         Bfn.  Coefficient  Atom+Function  
  ----- ------------  ---------------      ----- ------------  ---------------
    14      1.730730  1 O  dyz                8     -0.034997  1 O  py         
 
 Vector   17  Occ=0.000000D+00  E= 2.280546D+00  Symmetry=a1
              MO Center= -5.3D-17,  4.0D-18, -8.3D-03, r^2= 8.3D-01
   Bfn.  Coefficient  Atom+Function         Bfn.  Coefficient  Atom+Function  
  ----- ------------  ---------------      ----- ------------  ---------------
     6      1.538730  1 O  s                 13     -1.131130  1 O  dyy        
    16     -0.812305  2 H  s                 18     -0.812305  3 H  s          
     9      0.739032  1 O  pz                10      0.736231  1 O  dxx        
     2     -0.514845  1 O  s                 17     -0.141389  2 H  s          
    19     -0.141389  3 H  s                 15      0.070673  1 O  dzz        
 
 Vector   18  Occ=0.000000D+00  E= 2.577072D+00  Symmetry=b1
              MO Center=  2.4D-16,  1.1D-20, -6.9D-02, r^2= 8.6D-01
   Bfn.  Coefficient  Atom+Function         Bfn.  Coefficient  Atom+Function  
  ----- ------------  ---------------      ----- ------------  ---------------
    12      2.203303  1 O  dxz               16      0.923449  2 H  s          
    18     -0.923449  3 H  s                  7      0.842383  1 O  px         
    17     -0.050194  2 H  s                 19      0.050194  3 H  s          
     3     -0.036947  1 O  px         
 
 Vector   19  Occ=0.000000D+00  E= 3.551875D+00  Symmetry=a1
              MO Center= -4.0D-16,  1.3D-19, -1.3D-01, r^2= 1.0D+00
   Bfn.  Coefficient  Atom+Function         Bfn.  Coefficient  Atom+Function  
  ----- ------------  ---------------      ----- ------------  ---------------
     6      3.689494  1 O  s                 13     -1.578746  1 O  dyy        
    15     -1.549632  1 O  dzz               10     -1.526108  1 O  dxx        
    17     -0.554525  2 H  s                 19     -0.554525  3 H  s          
     1     -0.467946  1 O  s                  9      0.333971  1 O  pz         
     2      0.286707  1 O  s                  5     -0.116606  1 O  pz         
 

 center of mass
 --------------
 x =   0.00000000 y =   0.00000000 z =  -0.11087364

 moments of inertia (a.u.)
 ------------------
           2.291529487513           0.000000000000           0.000000000000
           0.000000000000           6.466181250406           0.000000000000
           0.000000000000           0.000000000000           4.174651762894
 
     Multipole analysis of the density
     ---------------------------------
 
     L   x y z        total         alpha         beta         nuclear
     -   - - -        -----         -----         ----         -------
     0   0 0 0     -0.000000     -5.000000     -5.000000     10.000000
 
     1   1 0 0      0.000000      0.000000      0.000000      0.000000
     1   0 1 0      0.000000      0.000000      0.000000      0.000000
     1   0 0 1      0.824451      0.468283      0.468283     -0.112115
 
     2   2 0 0     -3.186726     -3.664483     -3.664483      4.142239
     2   1 1 0      0.000000      0.000000      0.000000      0.000000
     2   1 0 1     -0.000000     -0.000000     -0.000000      0.000000
     2   0 2 0     -5.355805     -2.677902     -2.677902      0.000000
     2   0 1 1      0.000000      0.000000      0.000000      0.000000
[...]

  stpr_wrt_fd_from_sq: overwrite of existing file:./water.hess
 stpr_wrt_fd_dipole: overwrite of existing file./water.fd_ddipole

 HESSIAN: the two electron contributions are done in       1.3s

                                NWChem CPHF Module
                                ------------------
 
 
  scftype          =     RHF 
  nclosed          =        5
  nopen            =        0
  variables        =       70
  # of vectors     =        9
  tolerance        = 0.10D-03
  level shift      = 0.00D+00
  max iterations   =       50
  max subspace     =       90


 #quartets = 1.540D+03 #integrals = 8.874D+03 #direct =  0.0% #cached =100.0%


 Integral file          = ./water.aoints.00
 Record size in doubles =  65536        No. of integs per rec  =  43688
 Max. records in memory =      3        Max. records in file   = 224870
 No. of bits per label  =      8        No. of bits per value  =     64


File balance: exchanges=     0  moved=     0  time=   0.0

 Grid integrated density:      10.000000006527
 Requested integration accuracy:   0.10E-13
 SCF residual:   3.356519382956637E-006


Iterative solution of linear equations
  No. of variables       70
  No. of equations        9
  Maximum subspace       90
        Iterations       50
       Convergence  1.0D-04
        Start time     19.5


   iter   nsub   residual    time
   ----  ------  --------  ---------
     1      9    4.87D-01      20.9
     2     18    1.91D-01      24.7
     3     27    3.00D-03      26.2
     4     36    2.28D-04      26.4
     5     45    6.53D-06      26.5

 Parallel integral file used      19 records with       0 large values

 HESSIAN: the CPHF contributions are done
  stpr_wrt_fd_from_sq: overwrite of existing file:./water.hess
 stpr_wrt_fd_dipole: overwrite of existing file./water.fd_ddipole

 Derivative Dipole

  
  
 X vector of derivative dipole (au) [debye/angstrom]
 d_dipole_x/<atom=   1,x> =    -0.4098     [   -1.9684]
 d_dipole_x/<atom=   1,y> =    -0.0000     [   -0.0000]
 d_dipole_x/<atom=   1,z> =     0.0000     [    0.0000]
 d_dipole_x/<atom=   2,x> =     0.2049     [    0.9842]
 d_dipole_x/<atom=   2,y> =     0.0000     [    0.0000]
 d_dipole_x/<atom=   2,z> =     0.1253     [    0.6019]
 d_dipole_x/<atom=   3,x> =     0.2049     [    0.9842]
 d_dipole_x/<atom=   3,y> =     0.0000     [    0.0000]
 d_dipole_x/<atom=   3,z> =    -0.1253     [   -0.6019]
  
 Y vector of derivative dipole (au) [debye/angstrom]
 d_dipole_y/<atom=   1,x> =    -0.0000     [   -0.0000]
 d_dipole_y/<atom=   1,y> =    -0.7286     [   -3.4997]
 d_dipole_y/<atom=   1,z> =     0.0000     [    0.0000]
 d_dipole_y/<atom=   2,x> =     0.0000     [    0.0000]
 d_dipole_y/<atom=   2,y> =     0.3643     [    1.7498]
 d_dipole_y/<atom=   2,z> =    -0.0000     [   -0.0000]
 d_dipole_y/<atom=   3,x> =    -0.0000     [   -0.0000]
 d_dipole_y/<atom=   3,y> =     0.3643     [    1.7498]
 d_dipole_y/<atom=   3,z> =    -0.0000     [   -0.0000]
  
 Z vector of derivative dipole (au) [debye/angstrom]
 d_dipole_z/<atom=   1,x> =     0.0000     [    0.0000]
 d_dipole_z/<atom=   1,y> =     0.0000     [    0.0000]
 d_dipole_z/<atom=   1,z> =    -0.3352     [   -1.6099]
 d_dipole_z/<atom=   2,x> =     0.0918     [    0.4409]
 d_dipole_z/<atom=   2,y> =    -0.0000     [   -0.0000]
 d_dipole_z/<atom=   2,z> =     0.1676     [    0.8049]
 d_dipole_z/<atom=   3,x> =    -0.0918     [   -0.4409]
 d_dipole_z/<atom=   3,y> =     0.0000     [    0.0000]
 d_dipole_z/<atom=   3,z> =     0.1676     [    0.8049]
  
  
 HESSIAN: the Hessian is done
 
 
  Vibrational analysis via the FX method 
 
  See chapter 2 in "Molecular Vibrations" by Wilson, Decius and Cross
 
  Vib: Default input used 
 
  Nuclear Hessian passed symmetry test 
 


 ---------------------------- Atom information ----------------------------
     atom    #        X              Y              Z            mass
 --------------------------------------------------------------------------
    O        1  0.0000000D+00  0.0000000D+00 -2.3749757D-01  1.5994910D+01
    H        2 -1.4391384D+00  0.0000000D+00  8.9393290D-01  1.0078250D+00
    H        3  1.4391384D+00  0.0000000D+00  8.9393290D-01  1.0078250D+00
 --------------------------------------------------------------------------




          ----------------------------------------------------
          MASS-WEIGHTED NUCLEAR HESSIAN (Hartree/Bohr/Bohr/Kamu)
          ----------------------------------------------------


               1            2            3            4            5            6            7            8            9
   ----- ----- ----- ----- -----
    1    4.05112D+01
    2   -1.02590D-06 -1.71175D-04
    3    1.48681D-06  1.61379D-06  2.83068D+01
    4   -8.06944D+01  1.83645D-08  4.65372D+01  3.52650D+02
    5    1.98018D-08  3.48325D-04 -2.75601D-08  5.16675D-09 -4.49063D-04
    6    6.34411D+01 -1.57671D-08 -5.63845D+01 -2.19066D+02 -1.06377D-08  2.11662D+02
    7   -8.06944D+01 -1.70849D-08 -4.65372D+01 -3.11788D+01  3.34394D-09 -3.36709D+01  3.52650D+02
    8    1.72324D-08  3.48322D-04 -2.77957D-08 -2.46629D-09 -9.61683D-04 -1.06723D-09 -5.43732D-09 -4.49085D-04
    9   -6.34411D+01 -4.26427D-08 -5.63845D+01  3.36709D+01 -3.92312D-09  1.29630D+01  2.19066D+02 -3.54885D-09  2.11662D+02



          -------------------------------------------------
          NORMAL MODE EIGENVECTORS IN CARTESIAN COORDINATES
          -------------------------------------------------
                 (Frequencies expressed in cm-1)

                    1           2           3           4           5           6
 
 Frequency         -6.47       -1.77       -0.43        0.13        0.52        3.68
 
           1    -0.00005    -0.03836     0.23614     0.02667    -0.00754    -0.00000
           2    -0.08239    -0.00039     0.02723    -0.23173     0.03594    -0.00000
           3     0.00008     0.00662     0.00438     0.03656     0.23264     0.00000
           4    -0.00003     0.40589     0.21468     0.02161    -0.01899    -0.00000
           5     0.66502    -0.00043     0.02693    -0.22783     0.03508    -0.70436
           6     0.00011     0.57169    -0.02292     0.03012     0.21808     0.00000
           7    -0.00003     0.40589     0.21468     0.02161    -0.01899    -0.00000
           8     0.66502    -0.00042     0.02694    -0.22784     0.03508     0.70435
           9     0.00005    -0.55844     0.03168     0.04300     0.24720     0.00000

                    7           8           9
 
 Frequency       1713.02     3727.16     3849.13
 
           1     0.00000     0.00000    -0.06721
           2     0.00000    -0.00000     0.00000
           3     0.06784    -0.04893    -0.00000
           4    -0.41201    -0.57128     0.53334
           5    -0.00000    -0.00000     0.00000
           6    -0.53837     0.38827    -0.41931
           7     0.41201     0.57128     0.53334
           8    -0.00000     0.00000    -0.00000
           9    -0.53837     0.38827     0.41931



 ----------------------------------------------------------------------------
 Normal Eigenvalue ||         Derivative Dipole Moments (debye/angs)
  Mode   [cm**-1]  ||      [d/dqX]             [d/dqY]           [d/dqZ]
 ------ ---------- || ------------------ ------------------ -----------------
    1       -6.467 ||       0.000               2.616            -0.000
    2       -1.773 ||       1.555              -0.000            -0.000
    3       -0.427 ||      -0.075              -0.001             0.000
    4        0.128 ||      -0.018               0.014            -0.000
    5        0.516 ||      -0.040              -0.003            -0.000
    6        3.680 ||      -0.000              -0.000             0.000
    7     1713.015 ||       0.000               0.000             1.339
    8     3727.160 ||      -0.000               0.000             0.200
    9     3849.127 ||       0.677              -0.000            -0.000
 ----------------------------------------------------------------------------



  
  
 ----------------------------------------------------------------------------
 Normal Eigenvalue ||                 Infra Red Intensities
  Mode   [cm**-1]  || [atomic units] [(debye/angs)**2] [(KM/mol)] [arbitrary]
 ------ ---------- || -------------- ----------------- ---------- -----------
    1       -6.467 ||    0.296562           6.842       289.103      53.271
    2       -1.773 ||    0.104773           2.417       102.138      18.820
    3       -0.427 ||    0.000245           0.006         0.238       0.044
    4        0.128 ||    0.000022           0.000         0.021       0.004
    5        0.516 ||    0.000070           0.002         0.068       0.013
    6        3.680 ||    0.000000           0.000         0.000       0.000
    7     1713.015 ||    0.077739           1.794        75.784      13.964
    8     3727.160 ||    0.001735           0.040         1.692       0.312
    9     3849.127 ||    0.019886           0.459        19.386       3.572
 ----------------------------------------------------------------------------



 
 
        Vibrational analysis via the FX method 
  --- with translations and rotations projected out ---
  --- via the Eckart algorithm                      ---
 Projected Nuclear Hessian trans-rot subspace norm:2.8311D-32
                         (should be close to zero!) 

          --------------------------------------------------------
          MASS-WEIGHTED PROJECTED HESSIAN (Hartree/Bohr/Bohr/Kamu)
          --------------------------------------------------------


               1            2            3            4            5            6            7            8            9
   ----- ----- ----- ----- -----
    1    4.05113D+01
    2    0.00000D+00  0.00000D+00
    3    3.44829D-07  0.00000D+00  2.83068D+01
    4   -8.06945D+01  1.28765D-23  4.65372D+01  3.52650D+02
    5    3.09035D-22 -5.27420D-20 -5.89099D-22 -6.25187D-22  0.00000D+00
    6    6.34409D+01 -5.15059D-23 -5.63845D+01 -2.19066D+02  1.64633D-21  2.11661D+02
    7   -8.06946D+01  1.60956D-23 -4.65372D+01 -3.11786D+01 -6.03947D-22 -3.36706D+01  3.52650D+02
    8    3.09035D-22 -5.27420D-20 -5.87489D-22 -6.25187D-22  0.00000D+00  1.66717D-21 -6.02744D-22  0.00000D+00
    9   -6.34409D+01 -9.65735D-23 -5.63845D+01  3.36706D+01  6.89309D-22  1.29635D+01  2.19066D+02  6.89709D-22  2.11661D+02

 center of mass
 --------------
 x =   0.00000000 y =   0.00000000 z =  -0.11087364

 moments of inertia (a.u.)
 ------------------
           2.291529487513           0.000000000000           0.000000000000
           0.000000000000           6.466181250406           0.000000000000
           0.000000000000           0.000000000000           4.174651762894

 Rotational Constants
 --------------------
 A=  26.270740 cm-1  ( 37.796890 K)
 B=  14.420407 cm-1  ( 20.747285 K)
 C=   9.310004 cm-1  ( 13.394720 K)


 Temperature                      =   298.15K
 frequency scaling parameter      =   1.0000

 Zero-Point correction to Energy  =   13.273 kcal/mol  (  0.021152 au)
 Thermal correction to Energy     =   15.051 kcal/mol  (  0.023986 au)
 Thermal correction to Enthalpy   =   15.644 kcal/mol  (  0.024930 au)

 Total Entropy                    =   45.117 cal/mol-K
   - Translational                =   34.593 cal/mol-K (mol. weight =  18.0106)
   - Rotational                   =   10.519 cal/mol-K (symmetry #  =        2)
   - Vibrational                  =    0.005 cal/mol-K

 Cv (constant volume heat capacity) =    5.994 cal/mol-K
   - Translational                  =    2.979 cal/mol-K
   - Rotational                     =    2.979 cal/mol-K
   - Vibrational                    =    0.035 cal/mol-K



          -------------------------------------------------
          NORMAL MODE EIGENVECTORS IN CARTESIAN COORDINATES
          -------------------------------------------------
             (Projected Frequencies expressed in cm-1)

                    1           2           3           4           5           6
 
 P.Frequency       -0.00        0.00        0.00        0.00        0.00        0.00
 
           1    -0.23579     0.00000     0.00000     0.00000     0.04878    -0.00512
           2     0.00000     0.25004     0.00000     0.00000     0.00000     0.00000
           3     0.00001     0.00000     0.00000     0.00000     0.02463     0.23434
           4    -0.23437     0.00000     0.00000     0.00000    -0.39373     0.04138
           5     0.00000     0.00000     0.99611     0.00000     0.00000     0.00000
           6     0.00181     0.00000     0.00000     0.00000    -0.53822     0.29349
           7    -0.23437     0.00000     0.00000     0.00000    -0.39373     0.04138
           8     0.00000     0.00000     0.00000     0.99611     0.00000     0.00000
           9    -0.00179     0.00000     0.00000     0.00000     0.58747     0.17520

                    7           8           9
 
 P.Frequency     1713.01     3727.16     3849.12
 
           1    -0.00000     0.00000    -0.06721
           2     0.00000     0.00000     0.00000
           3     0.06784    -0.04893    -0.00000
           4    -0.41201    -0.57128     0.53334
           5     0.00000     0.00000     0.00000
           6    -0.53837     0.38827    -0.41931
           7     0.41201     0.57128     0.53334
           8     0.00000     0.00000     0.00000
           9    -0.53837     0.38827     0.41931



 ----------------------------------------------------------------------------
 Normal Eigenvalue ||    Projected Derivative Dipole Moments (debye/angs)
  Mode   [cm**-1]  ||      [d/dqX]             [d/dqY]           [d/dqZ]
 ------ ---------- || ------------------ ------------------ -----------------
    1       -0.000 ||      -0.005              -0.000             0.000
    2        0.000 ||      -0.000              -0.875             0.000
    3        0.000 ||       0.000               1.743            -0.000
    4        0.000 ||       0.000               1.743             0.000
    5        0.000 ||      -1.549              -0.000             0.000
    6        0.000 ||       0.163               0.000             0.000
    7     1713.015 ||      -0.000              -0.000             1.339
    8     3727.160 ||      -0.000              -0.000             0.200
    9     3849.125 ||       0.677               0.000             0.000
 ----------------------------------------------------------------------------



  
  
 ----------------------------------------------------------------------------
 Normal Eigenvalue ||           Projected Infra Red Intensities
  Mode   [cm**-1]  || [atomic units] [(debye/angs)**2] [(KM/mol)] [arbitrary]
 ------ ---------- || -------------- ----------------- ---------- -----------
    1       -0.000 ||    0.000001           0.000         0.001       0.000
    2        0.000 ||    0.033191           0.766        32.356       5.962
    3        0.000 ||    0.131690           3.038       128.378      23.655
    4        0.000 ||    0.131690           3.038       128.378      23.655
    5        0.000 ||    0.103951           2.398       101.337      18.673
    6        0.000 ||    0.001148           0.026         1.119       0.206
    7     1713.015 ||    0.077740           1.794        75.784      13.964
    8     3727.160 ||    0.001735           0.040         1.692       0.312
    9     3849.125 ||    0.019886           0.459        19.386       3.572
 ----------------------------------------------------------------------------



 vib:animation  F

 Task  times  cpu:       10.9s     wall:       13.4s
 
 
                                NWChem Input Module
                                -------------------
 
 
 Summary of allocated global arrays
-----------------------------------
  No active global arrays


MA_summarize_allocated_blocks: starting scan ...
MA_summarize_allocated_blocks: scan completed: 0 heap blocks, 0 stack blocks
MA usage statistics:

	allocation statistics:
					      heap	     stack
					      ----	     -----
	current number of blocks	         0	         0
	maximum number of blocks	        26	        57
	current total bytes		         0	         0
	maximum total bytes		   2568928	  89018584
	maximum total K-bytes		      2569	     89019
	maximum total M-bytes		         3	        90
 
 
                                     CITATION
                                     --------
                Please cite the following reference when publishing
                           results obtained with NWChem:
 
          E. Apra, E. J. Bylaska, W. A. de Jong, N. Govind, K. Kowalski,
       T. P. Straatsma, M. Valiev, H. J. J. van Dam, Y. Alexeev, J. Anchell,
       V. Anisimov, F. W. Aquino, R. Atta-Fynn, J. Autschbach, N. P. Bauman,
     J. C. Becca, D. E. Bernholdt, K. Bhaskaran-Nair, S. Bogatko, P. Borowski,
         J. Boschen, J. Brabec, A. Bruner, E. Cauet, Y. Chen, G. N. Chuev,
      C. J. Cramer, J. Daily, M. J. O. Deegan, T. H. Dunning Jr., M. Dupuis,
   K. G. Dyall, G. I. Fann, S. A. Fischer, A. Fonari, H. Fruchtl, L. Gagliardi,
      J. Garza, N. Gawande, S. Ghosh, K. Glaesemann, A. W. Gotz, J. Hammond,
       V. Helms, E. D. Hermes, K. Hirao, S. Hirata, M. Jacquelin, L. Jensen,
   B. G. Johnson, H. Jonsson, R. A. Kendall, M. Klemm, R. Kobayashi, V. Konkov,
      S. Krishnamoorthy, M. Krishnan, Z. Lin, R. D. Lins, R. J. Littlefield,
      A. J. Logsdail, K. Lopata, W. Ma, A. V. Marenich, J. Martin del Campo,
   D. Mejia-Rodriguez, J. E. Moore, J. M. Mullin, T. Nakajima, D. R. Nascimento,
    J. A. Nichols, P. J. Nichols, J. Nieplocha, A. Otero-de-la-Roza, B. Palmer,
    A. Panyala, T. Pirojsirikul, B. Peng, R. Peverati, J. Pittner, L. Pollack,
   R. M. Richard, P. Sadayappan, G. C. Schatz, W. A. Shelton, D. W. Silverstein,
   D. M. A. Smith, T. A. Soares, D. Song, M. Swart, H. L. Taylor, G. S. Thomas,
            V. Tipparaju, D. G. Truhlar, K. Tsemekhman, T. Van Voorhis,
      A. Vazquez-Mayagoitia, P. Verma, O. Villa, A. Vishnu, K. D. Vogiatzis,
        D. Wang, J. H. Weare, M. J. Williamson, T. L. Windus, K. Wolinski,
        A. T. Wong, Q. Wu, C. Yang, Q. Yu, M. Zacharias, Z. Zhang, Y. Zhao,
                                and R. J. Harrison
                        "NWChem: Past, present, and future
                         J. Chem. Phys. 152, 184102 (2020)
                               doi:10.1063/5.0004997
 
                                      AUTHORS
                                      -------
  E. Apra, E. J. Bylaska, N. Govind, K. Kowalski, M. Valiev, D. Mejia-Rodriguez,
       A. Kunitsa, N. P. Bauman, A. Panyala, W. A. de Jong, T. P. Straatsma,
   H. J. J. van Dam, D. Wang, T. L. Windus, J. Hammond, J. Autschbach, A. Woods,
    K. Bhaskaran-Nair, J. Brabec, K. Lopata, S. A. Fischer, S. Krishnamoorthy,
     M. Jacquelin, W. Ma, M. Klemm, O. Villa, Y. Chen, V. Anisimov, F. Aquino,
     S. Hirata, M. T. Hackler, E. Hermes, L. Jensen, J. E. Moore, J. C. Becca,
      V. Konjkov, T. Risthaus, M. Malagoli, A. Marenich, A. Otero-de-la-Roza,
        J. Mullin, P. Nichols, R. Peverati, J. Pittner, Y. Zhao, P.-D. Fan,
        A. Fonari, M. J. Williamson, R. J. Harrison, J. R. Rehr, M. Dupuis,
     D. Silverstein, D. M. A. Smith, J. Nieplocha, V. Tipparaju, M. Krishnan,
     B. E. Van Kuiken, A. Vazquez-Mayagoitia, M. Swart, Q. Wu, T. Van Voorhis,
     A. A. Auer, M. Nooijen, L. D. Crosby, E. Brown, G. Cisneros, G. I. Fann,
   H. Fruchtl, J. Garza, K. Hirao, R. A. Kendall, J. A. Nichols, K. Tsemekhman,
    K. Wolinski, J. Anchell, D. E. Bernholdt, P. Borowski, T. Clark, D. Clerc,
   H. Dachsel, M. J. O. Deegan, K. Dyall, D. Elwood, E. Glendening, M. Gutowski,
   A. C. Hess, J. Jaffe, B. G. Johnson, J. Ju, R. Kobayashi, R. Kutteh, Z. Lin,
   R. Littlefield, X. Long, B. Meng, T. Nakajima, S. Niu, L. Pollack, M. Rosing,
   K. Glaesemann, G. Sandrone, M. Stave, H. Taylor, G. Thomas, J. H. van Lenthe,
                               A. T. Wong, Z. Zhang.

 Total times  cpu:       23.1s     wall:       26.6s
