
 Working directory              : /tmp/charlie/molpro.OeGEnNvuNa/
 Global scratch directory       : /tmp/charlie/molpro.OeGEnNvuNa/
 Wavefunction directory         : /home/charlie/wfu/
 Main file repository           : /tmp/charlie/molpro.OeGEnNvuNa/

 id        : dap

 Nodes     nprocs
 charliebox   19
 Distribution of processes:   nprocs(total)=   20   nprocs(compute)=   19   nprocs(helper)=    1
 GA implementation: MPI file
 GA implementation (serial work in mppx): MPI file

 Using customized tuning parameters: mindgm=1; mindgv=20; mindgc=4; mindgr=1; noblas=0; minvec=7
 default implementation of scratch files=sf  


 Variables initialized (1059), CPU time= 0.01 sec
 geomtyp=xyz;
 geometry={
 c            -1.058493    -0.384055     0.000000
 h            -1.058493     0.695337     0.000000
 h            -0.040825    -0.743829     0.000000
 h            -1.567327    -0.743829     0.881326
 h            -1.567327    -0.743829    -0.881326
 }
 basis={
 default=def2-SVP
 }
 hf;
 pop;
 ci;dm,9000.2;
 pop;density,9000.2
 Commands initialized (838), CPU time= 0.96 sec, 726 directives.
 Default parameters read. Elapsed time= 1.59 sec

 Checking input...
 Passed
1


                                         ***  PROGRAM SYSTEM MOLPRO  ***
                                       Copyright, TTI GmbH Stuttgart, 2015
                                  Version 2025.2 linked Wed May 14 02:42:57 2025


 **********************************************************************************************************************************
 LABEL *                                                                                                                                                                 
                                                                                         DATE: 03-Dec-25          TIME: 22:56:24  
 **********************************************************************************************************************************

 SHA1:             57ceb174f4fe6691bc75d8fe641d0297fc3c2b28
 **********************************************************************************************************************************

 Memory per process:        32 MW
 Total memory per node:    608 MW

 GA preallocation disabled
 GA check disabled
 GEOMTYP         =  'XYZ'

 Geometry recognized as XYZ


 Variable memory set to 32.0 MW

 SETTING BASIS          =    DEF2-SVP


 Recomputing integrals since basis changed


 Using spherical harmonics

 Library entry C      S def2-SVP             selected for orbital group  1
 Library entry C      P def2-SVP             selected for orbital group  1
 Library entry C      D def2-SVP             selected for orbital group  1
 Library entry H      S def2-SVP             selected for orbital group  2
 Library entry H      P def2-SVP             selected for orbital group  2


 PROGRAM * SEWARD (Integral evaluation for generally contracted gaussian basis sets)     Author: Roland Lindh, 1990

 Geometry written to block  1 of record 700


 Point group  Cs  



 ATOMIC COORDINATES

 NR  ATOM    CHARGE       X              Y              Z

   1  C       6.00   -2.000261875   -0.725758767    0.000000000
   2  H       1.00   -2.000261875    1.313996494    0.000000000
   3  H       1.00   -0.077148069   -1.405633094    0.000000000
   4  H       1.00   -2.961818778   -1.405633094    1.665464767
   5  H       1.00   -2.961818778   -1.405633094   -1.665464767

 Bond lengths in Bohr (Angstrom)

 1-2  2.039755261  1-3  2.039753860  1-4  2.039753335  1-5  2.039753335
     ( 1.079392000)     ( 1.079391259)     ( 1.079390981)     ( 1.079390981)

 Bond angles

  2-1-3  109.46992085   2-1-4  109.46992607   2-1-5  109.46992607   3-1-4  109.47252561

  3-1-5  109.47252561   4-1-5  109.47249951

 NUCLEAR CHARGE:                   10
 NUMBER OF PRIMITIVE AOS:          53
 NUMBER OF SYMMETRY AOS:           52
 NUMBER OF CONTRACTIONS:           34   (   23A'  +   11A"  )
 NUMBER OF INNER CORE ORBITALS:     0   (    0A'  +    0A"  )
 NUMBER OF OUTER CORE ORBITALS:     1   (    1A'  +    0A"  )
 NUMBER OF VALENCE ORBITALS:        8   (    6A'  +    2A"  )


 NUCLEAR REPULSION ENERGY 13.56743770

 Eigenvalues of metric

         1 0.135E-01 0.545E-01 0.545E-01 0.952E-01 0.125E+00 0.125E+00 0.324E+00 0.324E+00
         2 0.545E-01 0.125E+00 0.324E+00 0.456E+00 0.545E+00 0.936E+00 0.936E+00 0.126E+01


 Contracted 2-electron integrals neglected if value below      1.0D-11
 AO integral compression algorithm  1   Integral accuracy      1.0D-11

     4.981 MB (compressed) written to integral file (100.0%)

     Node minimum: 0.262 MB, node maximum: 0.262 MB


 NUMBER OF SORTED TWO-ELECTRON INTEGRALS:       4593.     BUFFER LENGTH:  32768
 NUMBER OF SEGMENTS:   1  SEGMENT LENGTH:       4593      RECORD LENGTH: 524288

 Memory used in sort:       0.56 MW

 SORT1 READ      123382. AND WROTE        4387. INTEGRALS IN      1 RECORDS. CPU TIME:     0.04 SEC, REAL TIME:     0.05 SEC
 SORT2 READ       87541. AND WROTE       95085. INTEGRALS IN     19 RECORDS. CPU TIME:     0.00 SEC, REAL TIME:     0.00 SEC

 Node minimum:        4457.  Node maximum:        5592. integrals

 OPERATOR DM      FOR CENTER  0  COORDINATES:    0.000000    0.000000    0.000000


 **********************************************************************************************************************************
 DATASETS  * FILE   NREC   LENGTH (MB)   RECORD NAMES
              1      18       29.11       500      610      700      900      950      970     1000      129      960     1100   
                                          VAR    BASINP    GEOM    SYMINP    ZMAT    AOBASIS   BASIS     P2S    ABASIS      S 
                                         1400     1410     1200     1210     1080     1600     1650     1700   
                                           T        V       H0       H01     AOSYM     SMH    MOLCAS    OPER   

 PROGRAMS   *        TOTAL       INT
 CPU TIMES  *         5.11      2.36
 REAL TIME  *         7.08 SEC
 DISK USED  *        29.49 MB (local),      637.02 MB (total)
 GA USED    *         0.00 MB       (max)       0.00 MB       (current)
 **********************************************************************************************************************************


 Program * Restricted Hartree-Fock


 Generating basis MINAO
  Atom=C        basis=MINAO
  Atom=H        basis=MINAO
 Number of basis functions:       9

 Orbital guess generated from atomic densities.

 Initial occupancy:   4   1

 NELEC=   10   SYM=1   MS2= 0   THRE=1.0D-08   THRD=3.2D-06   THRG=3.2D-06  HFMA2=F  DIIS_START=2   DIIS_MAX=10   DIIS_INCORE=F

 Level shifts:    0.00 (CLOSED)    0.00 (OPEN)    0.30 (GAP_MIN)

 ITER           ETOT              DE          GRAD        DDIFF     DIIS  NEXP   TIME(IT)  TIME(TOT)  DIAG
   1      -40.15008262     -40.15008262     0.00D+00     0.14D+00     0     0       0.00      0.57    start
   2      -40.16666528      -0.01658266     0.12D-01     0.11D-01     1     0       0.02      0.59    diag
   3      -40.16862757      -0.00196229     0.44D-02     0.36D-02     2     0       0.00      0.59    diag
   4      -40.16887886      -0.00025129     0.11D-02     0.17D-02     3     0       0.00      0.59    diag
   5      -40.16888116      -0.00000229     0.12D-03     0.29D-03     4     0       0.00      0.59    diag
   6      -40.16888117      -0.00000001     0.74D-05     0.28D-04     5     0       0.00      0.59    diag
   7      -40.16888117      -0.00000000     0.33D-06     0.56D-06     6     0       0.00      0.59    diag
   8      -40.16888117      -0.00000000     0.25D-07     0.31D-07     0     0       0.00      0.59    diag

 Final occupancy:   4   1

 !RHF STATE 1.1 Energy                -40.168881166418
  RHF One-electron energy             -79.886255243842
  RHF Two-electron energy              26.149936374042
  RHF Kinetic energy                   39.927567935374
  RHF Nuclear energy                   13.567437703382
  RHF Virial quotient                  -1.006043774853

 !RHF STATE 1.1 Dipole moment          -0.00000011     0.00000823     0.00000000
 Dipole moment /Debye                  -0.00000027     0.00002093     0.00000000

 Orbital energies:

           1.1          2.1          3.1          4.1          5.1          6.1
    -11.212591    -0.937055    -0.547851    -0.547843     0.187784     0.275908

           1.2          2.2          3.2
     -0.547851     0.275908     0.592341


 HOMO      4.1    -0.547843 =     -14.9076eV
 LUMO      5.1     0.187784 =       5.1099eV
 LUMO-HOMO         0.735628 =      20.0175eV

 Orbitals saved in record  2100.2


 **********************************************************************************************************************************
 DATASETS  * FILE   NREC   LENGTH (MB)   RECORD NAMES
              1      18       29.11       500      610      700      900      950      970     1000      129      960     1100   
                                          VAR    BASINP    GEOM    SYMINP    ZMAT    AOBASIS   BASIS     P2S    ABASIS      S 
                                         1400     1410     1200     1210     1080     1600     1650     1700   
                                           T        V       H0       H01     AOSYM     SMH    MOLCAS    OPER   

              2       4        0.45       700     1000      520     2100   
                                         GEOM     BASIS   MCVARS     RHF  

 PROGRAMS   *        TOTAL    HF-SCF       INT
 CPU TIMES  *         6.03      0.92      2.36
 REAL TIME  *         8.96 SEC
 DISK USED  *        29.67 MB (local),      640.47 MB (total)
 GA USED    *         0.00 MB       (max)       0.00 MB       (current)
 **********************************************************************************************************************************


 PROGRAM * POP (Mulliken population analysis)


 Density matrix read from record         2100.2  Type=RHF/CHARGE  

 Population analysis by basis function type

 Unique atom        s        p        d        f        g        h        i    Total    Charge
   1  C       3.06753  3.03609  0.03019  0.00000  0.00000  0.00000  0.00000  6.13381  - 0.13381
   2  H       0.93958  0.02697  0.00000  0.00000  0.00000  0.00000  0.00000  0.96655  + 0.03345
   3  H       0.93957  0.02697  0.00000  0.00000  0.00000  0.00000  0.00000  0.96655  + 0.03345
   4  H       0.93957  0.02697  0.00000  0.00000  0.00000  0.00000  0.00000  0.96655  + 0.03345


 **********************************************************************************************************************************
 DATASETS  * FILE   NREC   LENGTH (MB)   RECORD NAMES
              1      18       29.11       500      610      700      900      950      970     1000      129      960     1100   
                                          VAR    BASINP    GEOM    SYMINP    ZMAT    AOBASIS   BASIS     P2S    ABASIS      S 
                                         1400     1410     1200     1210     1080     1600     1650     1700   
                                           T        V       H0       H01     AOSYM     SMH    MOLCAS    OPER   

              2       4        0.45       700     1000      520     2100   
                                         GEOM     BASIS   MCVARS     RHF  

 PROGRAMS   *        TOTAL       POP    HF-SCF       INT
 CPU TIMES  *         6.03      0.00      0.92      2.36
 REAL TIME  *         8.96 SEC
 DISK USED  *        29.67 MB (local),      640.47 MB (total)
 GA USED    *         0.00 MB       (max)       0.00 MB       (current)
 **********************************************************************************************************************************


 PROGRAM * CI (Multireference internally contracted CI)     Authors: H.-J. Werner, P.J. Knowles, 1987


 Convergence thresholds:  THRVAR = 1.00D-08  THRDEN = 1.00D-06

 Number of optimized states: 1  Roots:    1
 Number of reference states: 1  Roots:    1

 Reference symmetry:                   1   Singlet 
 Number of electrons:                 10
 Maximum number of shells:             3
 Maximum number of spin couplings:     2

 Reference space:        1 conf        1 CSFs
 N elec internal:        1 conf        1 CSFs
 N-1 el internal:        4 conf        4 CSFs
 N-2 el internal:       10 conf       16 CSFs

 Number of electrons in valence space:                      8
 Maximum number of open shell orbitals in reference space:  0
 Maximum number of open shell orbitals in internal spaces:  4


 Number of core orbitals:           1 (   1   0 )
 Number of closed-shell orbitals:   4 (   3   1 )
 Number of external orbitals:      29 (  19  10 )

 Molecular orbitals read from record     2100.2  Type=RHF/CANONICAL  

 Integral transformation finished. Total CPU:   0.00 sec, npass=  1  Memory used:   0.08 MW


 Number of p-space configurations:   1

 Reference wavefunction optimized for reference space (refopt=1)

 State     Reference Energy 
     1       -40.16888117

 Number of blocks in overlap matrix:    16   Smallest eigenvalue:  0.10D+01
 Number of N-2 electron functions:      16
 Number of N-1 electron functions:       4

 Number of internal configurations:                    1
 Number of singly external configurations:            67
 Number of doubly external configurations:          3503
 Total number of contracted configurations:         3571
 Total number of uncontracted configurations:       3571

 Diagonal Coupling coefficients finished.               Storage:    172602 words, CPU-Time:      0.15 seconds.
 Energy denominators for pairs finished in 1 passes.    Storage:    176827 words, CPU-time:      0.02 seconds.

  ITER. STATE  ROOT     SQ.NORM     CORR.ENERGY   TOTAL ENERGY   ENERGY CHANGE       DEN1      VAR(S)    VAR(P)      TIME
    1     1     1     1.00000000     0.00000000   -40.16888117    -0.00000000    -0.18320792  0.42D-14  0.68D-01     0.53
    2     1     1     1.05971134    -0.17207866   -40.34095982    -0.17207866    -0.00350799  0.35D-03  0.99D-03     0.62
    3     1     1     1.06310371    -0.17579291   -40.34467408    -0.00371426    -0.00014863  0.20D-04  0.42D-04     0.62
    4     1     1     1.06385332    -0.17596438   -40.34484554    -0.00017147    -0.00000721  0.15D-05  0.19D-05     0.63
    5     1     1     1.06403777    -0.17597264   -40.34485381    -0.00000827    -0.00000031  0.34D-07  0.10D-06     0.63
    6     1     1     1.06401791    -0.17597301   -40.34485418    -0.00000036    -0.00000001  0.12D-08  0.47D-08     0.63


 =====================================
 Analysis of CPU times by interactions
 =====================================

       I      S      P

 I   0.0%
 S   0.0%   0.0%
 P  50.8%   1.6%   0.0%

 Initialization:  33.3%
 Other:           14.3%

 Total CPU:        0.6 seconds
 =====================================



 Reference coefficients greater than 0.0500000
 =============================================
 2222           0.9694503


 RESULTS FOR STATE 1.1
 =====================

 Coefficient of reference function:   C(0) = 0.96945026 (fixed)   0.96945026 (relaxed)

 Energy contributions of configuration classes

 CLASS          SQ.NORM        ECORR1        ECORR2
 +++++++++++++++++++++++++++++++++++++++++++++++++++
 Internals    0.00000000    0.00000000    0.00000000
 Singles      0.00034967    0.00000000   -0.00005810
 Pairs        0.06366824   -0.17597301   -0.17591491
 Total        1.06401791   -0.17597301   -0.17597301
 +++++++++++++++++++++++++++++++++++++++++++++++++++


 Reference energy                     -40.16888117
 Nuclear energy                        13.56743770
 Kinetic energy                        40.12046063
 One electron energy                  -79.82147508
 Two electron energy                   25.90918320
 Virial quotient                       -1.00559300
 Correlation energy                    -0.17597301
 !CI(SD) STATE 1.1 Energy             -40.344854175784

 Properties without orbital relaxation:

 !CI(SD) STATE 1.1 Dipole moment        0.00000097     0.00000984     0.00000000
 Dipole moment /Debye                   0.00000246     0.00002500     0.00000000

 Cluster corrected energies           -40.35611960 (Davidson, fixed reference)
 Cluster corrected energies           -40.35611960 (Davidson, relaxed reference)

 Cluster corrected energies           -40.35357549 (Pople, fixed reference)
 Cluster corrected energies           -40.35357549 (Pople, relaxed reference)


 CI(SD) density matrix saved on record      9000.2 (density set 1)


 **********************************************************************************************************************************
 DATASETS  * FILE   NREC   LENGTH (MB)   RECORD NAMES
              1      19       29.19       500      610      700      900      950      970     1000      129      960     1100   
                                          VAR    BASINP    GEOM    SYMINP    ZMAT    AOBASIS   BASIS     P2S    ABASIS      S 
                                         1400     1410     1200     1210     1080     1600     1650     1700     1380   
                                           T        V       H0       H01     AOSYM     SMH    MOLCAS    OPER     JKOP   

              2       5        0.56       700     1000      520     2100     9000   
                                         GEOM     BASIS   MCVARS     RHF    CI(SD)    

 PROGRAMS   *        TOTAL        CI       POP    HF-SCF       INT
 CPU TIMES  *         7.52      1.47      0.00      0.92      2.36
 REAL TIME  *        11.08 SEC
 DISK USED  *        29.82 MB (local),      643.27 MB (total)
 SF USED    *         0.44 MB
 GA USED    *         0.00 MB       (max)       0.00 MB       (current)
 **********************************************************************************************************************************


 PROGRAM * POP (Mulliken population analysis)


 Density matrix read from record         9000.2  Type=CI(SD)/CHARGE (state 1.1)

 Population analysis by basis function type

 Unique atom        s        p        d        f        g        h        i    Total    Charge
   1  C       3.05247  3.04847  0.04338  0.00000  0.00000  0.00000  0.00000  6.14433  - 0.14433
   2  H       0.93442  0.02951  0.00000  0.00000  0.00000  0.00000  0.00000  0.96392  + 0.03608
   3  H       0.93441  0.02951  0.00000  0.00000  0.00000  0.00000  0.00000  0.96392  + 0.03608
   4  H       0.93441  0.02951  0.00000  0.00000  0.00000  0.00000  0.00000  0.96392  + 0.03608


 **********************************************************************************************************************************
 DATASETS  * FILE   NREC   LENGTH (MB)   RECORD NAMES
              1      19       29.19       500      610      700      900      950      970     1000      129      960     1100   
                                          VAR    BASINP    GEOM    SYMINP    ZMAT    AOBASIS   BASIS     P2S    ABASIS      S 
                                         1400     1410     1200     1210     1080     1600     1650     1700     1380   
                                           T        V       H0       H01     AOSYM     SMH    MOLCAS    OPER     JKOP   

              2       5        0.56       700     1000      520     2100     9000   
                                         GEOM     BASIS   MCVARS     RHF    CI(SD)    

 PROGRAMS   *        TOTAL       POP        CI       POP    HF-SCF       INT
 CPU TIMES  *         7.52      0.00      1.47      0.00      0.92      2.36
 REAL TIME  *        11.08 SEC
 DISK USED  *        29.82 MB (local),      643.27 MB (total)
 SF USED    *         0.44 MB
 GA USED    *         0.00 MB       (max)       0.00 MB       (current)
 **********************************************************************************************************************************

              CI          HF-SCF
    -40.34485418    -40.16888117
 **********************************************************************************************************************************
 Molpro calculation terminated
