
 Working directory              : /tmp/charlie/molpro.zvNFLHqfl6/
 Global scratch directory       : /tmp/charlie/molpro.zvNFLHqfl6/
 Wavefunction directory         : /home/charlie/wfu/
 Main file repository           : /tmp/charlie/molpro.zvNFLHqfl6/

 id        : dap

 Nodes     nprocs
 charliebox   19
 Distribution of processes:   nprocs(total)=   20   nprocs(compute)=   19   nprocs(helper)=    1
 GA implementation: MPI file
 GA implementation (serial work in mppx): MPI file

 Using customized tuning parameters: mindgm=1; mindgv=20; mindgc=4; mindgr=1; noblas=0; minvec=7
 default implementation of scratch files=sf  


 Variables initialized (1059), CPU time= 0.00 sec
 ***,Diboran Z-Matrix
 gthresh,energy=1.d-10,thrgrad=1.d-10
 basis=sto-3g
 r1=0.9023299 ang
 r2=0.9722889 ang
 r3=1.1540618 ang
 a1=118.723 degree
 
 
 geometry={
           X1
           B1,X1,r1
           H1,X1,r2,B1,90
           B2,X1,r1,H1,90,B1,180
           H2,X1,r2,B1,90,H1,180
           H3,B1,r3,X1,a1,H1,90
           H4,B1,r3,X1,a1,H1,-90
           H5,B2,r3,X1,a1,H1,90
           H6,B2,r3,X1,a1,H1,-90}
 
 
 hf
 optg,gradient=1.d-4
 
 {frequencies,coord=nosym
 thermo,sym=d2h
 print,thermo}
 
 {frequencies,coord=sym,new
 thermo,sym=d2h
 print,thermo}
 Commands initialized (838), CPU time= 1.13 sec, 726 directives.
 Default parameters read. Elapsed time= 2.31 sec

 Checking input...
 Passed
1


                                         ***  PROGRAM SYSTEM MOLPRO  ***
                                       Copyright, TTI GmbH Stuttgart, 2015
                                  Version 2025.2 linked Wed May 14 02:42:57 2025


 **********************************************************************************************************************************
 LABEL *   Diboran Z-Matrix                                                                                                                                              
                                                                                         DATE: 04-Dec-25          TIME: 00:02:21  
 **********************************************************************************************************************************

 SHA1:             57ceb174f4fe6691bc75d8fe641d0297fc3c2b28
 **********************************************************************************************************************************

 Memory per process:        32 MW
 Total memory per node:    608 MW

 GA preallocation disabled
 GA check disabled

 Variable memory set to 32.0 MW


 THRESHOLDS:

 ZERO    =  1.00D-12  ONEINT  =  1.00D-12  TWOINT  =  1.00D-11  PREFAC  =  1.00D-14  XXXXXX  =  1.00D-09  EORDER  =  1.00D-04
 ENERGY  =  1.00D-10  ETEST   =  0.00D+00  EDENS   =  0.00D+00  THRDEDEF=  1.00D-06  GRADIENT=  1.00D-05  STEP    =  1.00D-03
 ORBITAL =  1.00D-05  CIVEC   =  1.00D-05  COEFF   =  1.00D-04  PRINTCI =  5.00D-02  PUNCHCI =  9.90D+01  OPTGRAD =  3.00D-04
 OPTENERG=  1.00D-06  OPTSTEP =  3.00D-04  THRGRAD =  1.00D-10  COMPRESS=  1.00D-11  VARMIN  =  1.00D-07  VARMAX  =  1.00D-03
 THRDOUB =  0.00D+00  THRDIV  =  1.00D-05  THRRED  =  1.00D-07  THRPSP  =  1.00D+00  THRDC   =  1.00D-10  THRCS   =  1.00D-10
 THRNRM  =  1.00D-08  THREQ   =  0.00D+00  THRDE   =  1.00D+00  THRREF  =  1.00D-05  SPARFAC =  1.00D+00  THRDLP  =  1.00D-07
 THRDIA  =  1.00D-10  THRDLS  =  1.00D-07  THRGPS  =  0.00D+00  THRKEX  =  0.00D+00  THRDIS  =  2.00D-01  THRVAR  =  1.00D-10
 THRLOC  =  1.00D-06  THRGAP  =  1.00D-06  THRLOCT = -1.00D+00  THRGAPT = -1.00D+00  THRORB  =  1.00D-06  THRMLTP =  0.00D+00
 THRCPQCI=  1.00D-10  KEXTA   =  0.00D+00  THRCOARS=  0.00D+00  SYMTOL  =  1.00D-06  GRADTOL =  1.00D-06  THROVL  =  1.00D-08
 THRORTH =  1.00D-08  THRDLOVL=  1.00D-08  GRID    =  1.00D-06  GRIDMAX =  1.00D-03  DTMAX   =  0.00D+00  THROCCDE=  1.00D-01
 THROCCDE=  1.00D-01  THRPRINT=  2.50D-01  SCALEFAC=  1.20D+00

 SETTING BASIS          =    STO-3G
 R1              =       0.90232990  ANG                             
 R2              =       0.97228890  ANG                             
 R3              =       1.15406180  ANG                             
 A1              =     118.72300000  DEGREE                          


 Recomputing integrals since basis changed


 Using spherical harmonics

 Library entry B      S STO-3G               selected for orbital group  1
 Library entry B      P STO-3G               selected for orbital group  1
 Library entry H      S STO-3G               selected for orbital group  2


 PROGRAM * SEWARD (Integral evaluation for generally contracted gaussian basis sets)     Author: Roland Lindh, 1990

 Geometry written to block  1 of record 700

 Orientation using atomic masses  
 Molecule type: Asymmetric top,     Order of principal axis = 2
 Symmetry elements: X,Y,Z
 Rotational constants:      18.0062608     16.6842825     83.7374249 GHz  (calculated with average atomic masses)

 Point group  D2h 



 ATOMIC COORDINATES

 NR  ATOM    CHARGE       X              Y              Z

   1  B1      5.00    0.000000000    0.000000000    1.705156385
   2  B2      5.00    0.000000000    0.000000000   -1.705156385
   3  H1      1.00    0.000000000    1.837359735    0.000000000
   4  H2      1.00    0.000000000   -1.837359735    0.000000000
   5  H3      1.00   -1.912513058    0.000000000    2.753224770
   6  H4      1.00    1.912513058    0.000000000    2.753224770
   7  H5      1.00    1.912513058    0.000000000   -2.753224770
   8  H6      1.00   -1.912513058    0.000000000   -2.753224770

 Bond lengths in Bohr (Angstrom)

 1-2  3.410312770  1-3  2.506680892  1-4  2.506680892  1-5  2.180860733  1-6  2.180860733
     ( 1.804659800)     ( 1.326478403)     ( 1.326478403)     ( 1.154061800)     ( 1.154061800)

 2-3  2.506680892  2-4  2.506680892  2-7  2.180860733  2-8  2.180860733
     ( 1.326478403)     ( 1.326478403)     ( 1.154061800)     ( 1.154061800)

 Bond angles

  1-2-3   47.13723247   1-2-4   47.13723247   1-2-7  118.72300000   1-2-8  118.72300000

  1-3-2   85.72553506   1-4-2   85.72553506   2-1-3   47.13723247   2-1-4   47.13723247

  2-1-5  118.72300000   2-1-6  118.72300000   3-1-4   94.27446494   3-1-5  109.08127025

  3-1-6  109.08127025   3-2-4   94.27446494   3-2-7  109.08127025   3-2-8  109.08127025

  4-1-5  109.08127025   4-1-6  109.08127025   4-2-7  109.08127025   4-2-8  109.08127025

  5-1-6  122.55400000   7-2-8  122.55400000

 NUCLEAR CHARGE:                   16
 NUMBER OF PRIMITIVE AOS:          48
 NUMBER OF SYMMETRY AOS:           48
 NUMBER OF CONTRACTIONS:           16   (    5Ag  +    2B3u +    2B2u +    0B1g +    4B1u +    2B2g +    1B3g +    0Au  )
 NUMBER OF INNER CORE ORBITALS:     0   (    0Ag  +    0B3u +    0B2u +    0B1g +    0B1u +    0B2g +    0B3g +    0Au  )
 NUMBER OF OUTER CORE ORBITALS:     2   (    1Ag  +    0B3u +    0B2u +    0B1g +    1B1u +    0B2g +    0B3g +    0Au  )
 NUMBER OF VALENCE ORBITALS:       14   (    4Ag  +    2B3u +    2B2u +    0B1g +    3B1u +    2B2g +    1B3g +    0Au  )


 NUCLEAR REPULSION ENERGY 32.15192093

 Eigenvalues of metric

         1 0.212E+00 0.407E+00 0.959E+00 0.157E+01 0.271E+01
         2 0.345E+00 0.171E+01
         3 0.352E+00 0.167E+01
         5 0.237E+00 0.406E+00 0.976E+00 0.188E+01
         6 0.288E+00 0.143E+01
         7 0.846E+00


 Contracted 2-electron integrals neglected if value below      1.0D-14
 AO integral compression algorithm  1   Integral accuracy      1.0D-14

     4.981 MB (compressed) written to integral file (100.0%)

     Node minimum: 0.262 MB, node maximum: 0.262 MB


 NUMBER OF SORTED TWO-ELECTRON INTEGRALS:         72.     BUFFER LENGTH:  32768
 NUMBER OF SEGMENTS:   1  SEGMENT LENGTH:         72      RECORD LENGTH: 524288

 Memory used in sort:       0.56 MW

 SORT1 READ        2820. AND WROTE          72. INTEGRALS IN      1 RECORDS. CPU TIME:     0.01 SEC, REAL TIME:     0.01 SEC
 SORT2 READ        1886. AND WROTE        1886. INTEGRALS IN     19 RECORDS. CPU TIME:     0.00 SEC, REAL TIME:     0.00 SEC

 Node minimum:           0.  Node maximum:         435. integrals

 OPERATOR DM      FOR CENTER  0  COORDINATES:    0.000000    0.000000    0.000000


 **********************************************************************************************************************************
 DATASETS  * FILE   NREC   LENGTH (MB)   RECORD NAMES
              1      18       29.09       500      610      700      900      950      970     1000      129      960     1100   
                                          VAR    BASINP    GEOM    SYMINP    ZMAT    AOBASIS   BASIS     P2S    ABASIS      S 
                                         1400     1410     1200     1210     1080     1600     1650     1700   
                                           T        V       H0       H01     AOSYM     SMH    MOLCAS    OPER   

 PROGRAMS   *        TOTAL       INT
 CPU TIMES  *         6.33      1.68
 REAL TIME  *         8.96 SEC
 DISK USED  *        29.48 MB (local),      624.96 MB (total)
 GA USED    *         0.00 MB       (max)       0.00 MB       (current)
 **********************************************************************************************************************************


 Program * Restricted Hartree-Fock


 Generating basis MINAO
  Atom=B        basis=MINAO
  Atom=H        basis=MINAO
 Number of basis functions:      16

 Orbital guess generated from atomic densities.

 Initial occupancy:   3   1   1   0   2   1   0

 NELEC=   16   SYM=1   MS2= 0   THRE=1.0D-12   THRD=1.0D-06   THRG=1.0D-06  HFMA2=F  DIIS_START=2   DIIS_MAX=10   DIIS_INCORE=F

 Level shifts:    0.00 (CLOSED)    0.00 (OPEN)    0.30 (GAP_MIN)

 ITER           ETOT              DE          GRAD        DDIFF     DIIS  NEXP   TIME(IT)  TIME(TOT)  DIAG
   1      -52.15022383     -52.15022383     0.00D+00     0.67D+00     0     0       0.02      1.85    start
   2      -52.16561076      -0.01538693     0.27D-01     0.52D-01     1     0       0.01      1.86    diag
   3      -52.16607809      -0.00046733     0.43D-02     0.83D-02     2     0       0.00      1.86    diag
   4      -52.16610470      -0.00002661     0.97D-03     0.24D-02     3     0       0.00      1.86    diag
   5      -52.16610482      -0.00000012     0.65D-04     0.15D-03     4     0       0.00      1.86    diag
   6      -52.16610482      -0.00000000     0.64D-05     0.15D-04     5     0       0.00      1.86    diag
   7      -52.16610482      -0.00000000     0.59D-06     0.15D-05     6     0       0.00      1.86    diag
   8      -52.16610482      -0.00000000     0.23D-07     0.43D-07     7     0       0.00      1.86    fixocc
   9      -52.16610482       0.00000000     0.20D-08     0.34D-08     0     0       0.00      1.86    diag

 Final occupancy:   3   1   1   0   2   1   0

 !RHF STATE 1.1 Energy                -52.166104824055
  RHF One-electron energy            -131.908635478375
  RHF Two-electron energy              47.590609720604
  RHF Kinetic energy                   52.394704159293
  RHF Nuclear energy                   32.151920933716
  RHF Virial quotient                  -0.995636976315

 !RHF STATE 1.1 Dipole moment           0.00000000     0.00000000     0.00000000
 Dipole moment /Debye                   0.00000000     0.00000000     0.00000000

 Orbital energies:

           1.1          2.1          3.1          4.1          5.1
     -7.447184    -0.855026    -0.491099     0.537532     0.820807

           1.2          2.2
     -0.524712     0.680974

           1.3          2.3
     -0.524432     0.727575

           1.5          2.5          3.5          4.5
     -7.446940    -0.618120     0.542978     0.748271

           1.6          2.6
     -0.456196     0.895062

           1.7
      0.245336


 HOMO      1.6    -0.456196 =     -12.4137eV
 LUMO      1.7     0.245336 =       6.6759eV
 LUMO-HOMO         0.701531 =      19.0896eV

 Orbitals saved in record  2100.2


 **********************************************************************************************************************************
 DATASETS  * FILE   NREC   LENGTH (MB)   RECORD NAMES
              1      18       29.09       500      610      700      900      950      970     1000      129      960     1100   
                                          VAR    BASINP    GEOM    SYMINP    ZMAT    AOBASIS   BASIS     P2S    ABASIS      S 
                                         1400     1410     1200     1210     1080     1600     1650     1700   
                                           T        V       H0       H01     AOSYM     SMH    MOLCAS    OPER   

              2       4        0.45       700     1000      520     2100   
                                         GEOM     BASIS   MCVARS     RHF  

 PROGRAMS   *        TOTAL    HF-SCF       INT
 CPU TIMES  *         8.25      1.92      1.68
 REAL TIME  *        12.04 SEC
 DISK USED  *        29.62 MB (local),      627.57 MB (total)
 GA USED    *         0.00 MB       (max)       0.00 MB       (current)
 **********************************************************************************************************************************


 PROGRAM * OPT (Geometry optimization)     Authors: F. Eckert and H.-J. Werner


 BFGS update of hessian

 *** Long output written to logfile /home/charlie/input_examples/molpro/diboran_freq.log ***


 Geometry optimization using default procedure for command HF-SCF

 Geometry written to block  1 of record 700

 Making model hessian for Z-matrix coordinates

 Entering Rational Function Geometry Optimization

 ITER.   ENERGY(OLD)    ENERGY(NEW)      DE          GRADMAX     GRADNORM    GRADRMS     STEPMAX     STEPLEN     STEPRMS   CPU-time
   1   -52.16610482   -52.16610487    -0.00000005  0.00020652  0.00027700  0.00013850  0.00039170  0.00039522  0.00009880      1.24
   2   -52.16610487   -52.16610488    -0.00000000  0.00007278  0.00009621  0.00004811  0.00008048  0.00009643  0.00002411      3.39

 END OF GEOMETRY OPTIMIZATION.

 Optimized variables
 R1=                  0.90228347 ANG
 R2=                  0.97206972 ANG
 R3=                  1.15403311 ANG
 A1=                118.71886434 DEGREE

 **********************************************************************************************************************************

 Geometry written to block  1 of record 700

 Recomputing wavefunction for reoriented structure

 Current geometry (xyz format, in Angstrom)

    8
 HF-SCF000/STO-3G  ENERGY=-52.16610488
 B           0.0000000000        0.0000000000        0.9022834670
 H           0.0000000000        0.9720697177        0.0000000000
 B           0.0000000000        0.0000000000       -0.9022834670
 H           0.0000000000       -0.9720697177        0.0000000000
 H          -1.0120731956        0.0000000000        1.4568105335
 H           1.0120731956        0.0000000000        1.4568105335
 H           1.0120731956        0.0000000000       -1.4568105335
 H          -1.0120731956        0.0000000000       -1.4568105335

 **********************************************************************************************************************************


 **********************************************************************************************************************************
 DATASETS  * FILE   NREC   LENGTH (MB)   RECORD NAMES
              1      18       29.09       500      610      700      900      950      970     1000      129      960     1100   
                                          VAR    BASINP    GEOM    SYMINP    ZMAT    AOBASIS   BASIS     P2S    ABASIS      S 
                                         1400     1410     1200     1210     1080     1600     1650     1700   
                                           T        V       H0       H01     AOSYM     SMH    MOLCAS    OPER   

              2       4        0.45       700     1000      520     2100   
                                         GEOM     BASIS   MCVARS     RHF  

 PROGRAMS   *        TOTAL      OPTG    HF-SCF       INT
 CPU TIMES  *        11.82      3.52      1.92      1.68
 REAL TIME  *        17.24 SEC
 DISK USED  *        29.62 MB (local),      627.57 MB (total)
 SF USED    *         0.01 MB
 GA USED    *         0.00 MB       (max)       0.00 MB       (current)
 **********************************************************************************************************************************


 PROGRAM * HESSIAN

 Computing numerical hessian using default procedure for command HF-SCF

 Using AUTO symmetry option

 Running default procedure: HF-SCF000


 Numerically approximating hessian using central gradient differences

 Task list generated. Total number of displacements:     48


 Switching to mppx mode, nproc= 19

 All  48 tasks completed.  CPU=      1.09 sec, Elapsed=      1.31 sec.

 Switching back to mpp mode, nproc= 19


 HF-SCF hessian saved to record  5300.2

 PROGRAM * FREQUENCIES (Calculation of harmonic vibrational spectra for HF-SCF)


 Permanent Dipole Moment [debye]
     1-   3    0.000000    0.000000    0.000000

 Dipole Moment Norm    0.0000000 [debye]

 Dipole Moment Derivatives [debye/ang]
              1             2             3             4             5             6             7             8
    1    0.55301944    0.00000000    0.00000000    0.00324189    0.00000000    0.00000000    0.55301944    0.00000000
    2    0.00000000    1.24587880    0.00000000    0.00000000   -0.04782581    0.00000000    0.00000000    1.24587880
    3    0.00000000    0.00000000    4.40596242    0.00000000    0.00000000   -3.32613884    0.00000000    0.00000000
              9            10            11            12            13            14            15            16
    1    0.00000000    0.00324189    0.00000000    0.00000000   -0.27811869    0.00000000   -0.25223132   -0.27811869
    2    0.00000000    0.00000000   -0.04782581    0.00000000    0.00000000   -0.59898872    0.00000000    0.00000000
    3    4.40596242    0.00000000    0.00000000   -3.32613884   -0.26052001    0.00000000   -0.53990383    0.26052001
             17            18            19            20            21            22            23            24
    1    0.00000000    0.25223132   -0.27811869    0.00000000   -0.25223132   -0.27811869    0.00000000    0.25223132
    2   -0.59898872    0.00000000    0.00000000   -0.59898872    0.00000000    0.00000000   -0.59898872    0.00000000
    3    0.00000000   -0.53990383   -0.26052001    0.00000000   -0.53990383    0.26052001    0.00000000   -0.53990383

 Projecting out rotations and translations

   Low Vibration      Wavenumber
        Nr             [1/cm] 
        1                0.00
        2                0.00
        3                0.00
        4                0.00
        5                0.00
        6                0.00

     Vibration        Wavenumber
        Nr             [1/cm] 
        1              448.49
        2              885.50
        3              902.34
        4             1001.51
        5             1090.73
        6             1196.65
        7             1255.16
        8             1393.18
        9             1429.97
       10             1450.41
       11             1831.21
       12             1952.00
       13             2339.70
       14             2489.77
       15             3223.90
       16             3227.39
       17             3389.09
       18             3390.88

 FREQUENCIES * CALCULATION OF NORMAL MODES FOR HF-SCF


 Atomic Coordinates

  Nr  Atom  Charge       X              Y              Z

   1   B1    5.00    0.000000000    0.000000000    1.705068639
   2   H1    1.00    0.000000000    1.836945541    0.000000000
   3   B2    5.00    0.000000000    0.000000000   -1.705068639
   4   H2    1.00    0.000000000   -1.836945541    0.000000000
   5   H3    1.00   -1.912541158    0.000000000    2.752972924
   6   H4    1.00    1.912541158    0.000000000    2.752972924
   7   H5    1.00    1.912541158    0.000000000   -2.752972924
   8   H6    1.00   -1.912541158    0.000000000   -2.752972924

 Gradient norm at reference geometry: 0.14569D-03

 Normal Modes

                              1 B2u       2 B2g       3 Ag        4 Au        5 B1g
 Wavenumbers [cm-1]          448.49      885.50      902.34     1001.51     1090.73
 Intensities [km/mol]         14.41        0.00        0.00        0.00        0.00
 Intensities [relative]        1.54        0.00        0.00        0.00        0.00
           B1X1            -0.00058     0.00000     0.00000    -0.00000    -0.11582
           B1Y1             0.00000     0.13112    -0.00000     0.00000     0.00000
           B1Z1            -0.00000     0.00000     0.19562     0.00000     0.00000
           H1X2             0.39911    -0.00000    -0.00000    -0.00000    -0.00000
           H1Y2            -0.00000    -0.00000    -0.08369     0.00000     0.00000
           H1Z2             0.00000     0.20290    -0.00000    -0.00000    -0.00000
           B2X3            -0.00058     0.00000    -0.00000     0.00000     0.11582
           B2Y3            -0.00000    -0.13112     0.00000    -0.00000     0.00000
           B2Z3             0.00000    -0.00000    -0.19562    -0.00000    -0.00000
           H2X4             0.39911    -0.00000    -0.00000    -0.00000    -0.00000
           H2Y4            -0.00000     0.00000     0.08369     0.00000    -0.00000
           H2Z4            -0.00000    -0.20290     0.00000    -0.00000    -0.00000
           H3X5            -0.19647     0.00000    -0.00962     0.00000     0.10187
           H3Y5             0.00000    -0.36778    -0.00000     0.49803    -0.00000
           H3Z5            -0.36026     0.00000     0.19809     0.00000     0.40708
           H4X6            -0.19647    -0.00000     0.00962     0.00000     0.10187
           H4Y6            -0.00000    -0.36778     0.00000    -0.49803     0.00000
           H4Z6             0.36026     0.00000     0.19809    -0.00000    -0.40708
           H5X7            -0.19647     0.00000     0.00962    -0.00000    -0.10187
           H5Y7             0.00000     0.36778    -0.00000     0.49803    -0.00000
           H5Z7            -0.36026     0.00000    -0.19809    -0.00000    -0.40708
           H6X8            -0.19647    -0.00000    -0.00962    -0.00000    -0.10187
           H6Y8             0.00000     0.36778    -0.00000    -0.49803     0.00000
           H6Z8             0.36026    -0.00000    -0.19809     0.00000     0.40708

                              6 B1u       7 B2u       8 B3g       9 B3u      10 Ag 
 Wavenumbers [cm-1]         1196.65     1255.16     1393.18     1429.97     1450.41
 Intensities [km/mol]         66.27        7.43        0.00      182.89        0.00
 Intensities [relative]        7.08        0.79        0.00       19.54        0.00
           B1X1             0.00000    -0.06553     0.00000     0.00000     0.00000
           B1Y1            -0.06987    -0.00000     0.00000     0.00000     0.00000
           B1Z1             0.00000     0.00000    -0.00000    -0.07612    -0.06870
           H1X2            -0.00000     0.54830     0.58265    -0.00000     0.00000
           H1Y2            -0.16378    -0.00000     0.00000    -0.00000     0.07281
           H1Z2             0.00000     0.00000     0.00000     0.04616    -0.00000
           B2X3             0.00000    -0.06553    -0.00000     0.00000    -0.00000
           B2Y3            -0.06987    -0.00000     0.00000     0.00000    -0.00000
           B2Z3            -0.00000    -0.00000     0.00000    -0.07612     0.06870
           H2X4            -0.00000     0.54830    -0.58265     0.00000     0.00000
           H2Y4            -0.16378    -0.00000    -0.00000     0.00000    -0.07281
           H2Z4             0.00000    -0.00000     0.00000     0.04616    -0.00000
           H3X5             0.00000     0.07726     0.00000     0.26000     0.25809
           H3Y5             0.45655     0.00000    -0.27981    -0.00000     0.00000
           H3Z5             0.00000     0.26214     0.00000     0.38509     0.39174
           H4X6            -0.00000     0.07726    -0.00000    -0.26000    -0.25809
           H4Y6             0.45655     0.00000     0.27981    -0.00000    -0.00000
           H4Z6             0.00000    -0.26214     0.00000     0.38509     0.39174
           H5X7             0.00000     0.07726     0.00000     0.26000    -0.25809
           H5Y7             0.45655     0.00000     0.27981    -0.00000    -0.00000
           H5Z7            -0.00000     0.26214     0.00000     0.38509    -0.39174
           H6X8            -0.00000     0.07726    -0.00000    -0.26000     0.25809
           H6Y8             0.45655     0.00000    -0.27981    -0.00000     0.00000
           H6Z8             0.00000    -0.26214     0.00000     0.38509    -0.39174

                             11 B3u      12 B2g      13 B1u      14 Ag       15 B3u
 Wavenumbers [cm-1]         1831.21     1952.00     2339.70     2489.77     3223.90
 Intensities [km/mol]        936.19        0.00        6.22        0.00       20.56
 Intensities [relative]      100.00        0.00        0.66        0.00        2.20
           B1X1            -0.00000     0.00000    -0.00000     0.00000    -0.00000
           B1Y1             0.00000     0.00717    -0.07231     0.00000     0.00000
           B1Z1            -0.04600    -0.00000     0.00000     0.02784     0.04691
           H1X2            -0.00000    -0.00000     0.00000    -0.00000     0.00000
           H1Y2             0.00000    -0.00000     0.65810     0.69432    -0.00000
           H1Z2             0.67580     0.64902     0.00000    -0.00000    -0.03293
           B2X3             0.00000     0.00000    -0.00000    -0.00000    -0.00000
           B2Y3             0.00000    -0.00717    -0.07231     0.00000     0.00000
           B2Z3            -0.04600     0.00000    -0.00000    -0.02784     0.04691
           H2X4            -0.00000     0.00000     0.00000    -0.00000    -0.00000
           H2Y4            -0.00000    -0.00000     0.65810    -0.69432     0.00000
           H2Z4             0.67580    -0.64902    -0.00000    -0.00000    -0.03293
           H3X5             0.00294     0.00000    -0.00000    -0.05314     0.42476
           H3Y5            -0.00000     0.19273     0.05870    -0.00000    -0.00000
           H3Z5            -0.09124     0.00000    -0.00000    -0.00333    -0.23509
           H4X6            -0.00294    -0.00000     0.00000     0.05314    -0.42476
           H4Y6            -0.00000     0.19273     0.05870     0.00000    -0.00000
           H4Z6            -0.09124     0.00000    -0.00000    -0.00333    -0.23509
           H5X7             0.00294    -0.00000     0.00000     0.05314     0.42476
           H5Y7             0.00000    -0.19273     0.05870    -0.00000     0.00000
           H5Z7            -0.09124    -0.00000     0.00000     0.00333    -0.23509
           H6X8            -0.00294     0.00000    -0.00000    -0.05314    -0.42476
           H6Y8            -0.00000    -0.19273     0.05870     0.00000    -0.00000
           H6Z8            -0.09124    -0.00000     0.00000     0.00333    -0.23509

                             16 Ag       17 B1g      18 B2u
 Wavenumbers [cm-1]         3227.39     3389.09     3390.88
 Intensities [km/mol]          0.00        0.00        4.19
 Intensities [relative]        0.00        0.00        0.45
           B1X1             0.00000    -0.07719    -0.07626
           B1Y1            -0.00000    -0.00000     0.00000
           B1Z1             0.04993    -0.00000    -0.00000
           H1X2            -0.00000     0.00000    -0.00022
           H1Y2             0.04094    -0.00000    -0.00000
           H1Z2            -0.00000     0.00000     0.00000
           B2X3             0.00000     0.07719    -0.07626
           B2Y3             0.00000     0.00000     0.00000
           B2Z3            -0.04993     0.00000    -0.00000
           H2X4            -0.00000    -0.00000    -0.00022
           H2Y4            -0.04094     0.00000     0.00000
           H2Z4            -0.00000     0.00000     0.00000
           H3X5             0.42250     0.40937     0.40905
           H3Y5            -0.00000    -0.00000     0.00000
           H3Z5            -0.23521    -0.22021    -0.22255
           H4X6            -0.42250     0.40937     0.40905
           H4Y6            -0.00000     0.00000    -0.00000
           H4Z6            -0.23521     0.22021     0.22255
           H5X7            -0.42250    -0.40937     0.40905
           H5Y7            -0.00000    -0.00000     0.00000
           H5Z7             0.23521     0.22021    -0.22255
           H6X8             0.42250    -0.40937     0.40905
           H6Y8            -0.00000     0.00000    -0.00000
           H6Z8             0.23521    -0.22021     0.22255


 Normal Modes of low/zero frequencies

                                  1           2           3           4           5
 Wavenumbers [cm-1]            0.00        0.00        0.00        0.00        0.00
 Intensities [km/mol]          0.00        0.00        0.00        0.00        0.00
 Intensities [relative]        0.00        0.00        0.00        0.00        0.00
           B1X1             0.06427     0.06764     0.01021     0.13936     0.17698
           B1Y1            -0.04900    -0.02251    -0.00811     0.15099    -0.02660
           B1Z1             0.10055     0.12280     0.04076    -0.05259    -0.01820
           H1X2             0.08012    -0.14462    -0.01090    -0.11215     0.36541
           H1Y2             0.02016    -0.07110     0.09272     0.10496    -0.03515
           H1Z2             0.17506     0.07045     0.14940    -0.10218    -0.02742
           B2X3             0.17924    -0.09533    -0.14413     0.02198     0.01920
           B2Y3             0.08932    -0.11969     0.19356     0.05893    -0.04371
           B2Z3             0.10055     0.12280     0.04076    -0.05259    -0.01820
           H2X4             0.16339     0.11693    -0.12302     0.27349    -0.16922
           H2Y4             0.02016    -0.07110     0.09272     0.10496    -0.03515
           H2Z4             0.02605     0.17514    -0.06787    -0.00301    -0.00898
           H3X5             0.02894     0.11773     0.05764     0.17543     0.22547
           H3Y5            -0.13485    -0.12881    -0.01172    -0.02148     0.25698
           H3Z5             0.03607     0.21420     0.12732     0.01324     0.07029
           H4X6             0.02894     0.11773     0.05764     0.17543     0.22547
           H4Y6            -0.04815     0.14351    -0.12845     0.38003    -0.29965
           H4Z6             0.16503     0.03139    -0.04580    -0.11843    -0.10669
           H5X7             0.21457    -0.14542    -0.19155    -0.01410    -0.02928
           H5Y7             0.17517    -0.01339     0.19717     0.23140    -0.32729
           H5Z7             0.16503     0.03139    -0.04580    -0.11843    -0.10669
           H6X8             0.21457    -0.14542    -0.19155    -0.01410    -0.02928
           H6Y8             0.08847    -0.28570     0.31390    -0.17011     0.22934
           H6Z8             0.03607     0.21420     0.12732     0.01324     0.07029

                                  6
 Wavenumbers [cm-1]            0.00
 Intensities [km/mol]          0.00
 Intensities [relative]        0.00
           B1X1            -0.05888
           B1Y1             0.19666
           B1Z1             0.07871
           H1X2             0.13847
           H1Y2             0.09916
           H1Z2            -0.02634
           B2X3             0.01352
           B2Y3             0.00165
           B2Z3             0.07871
           H2X4            -0.18383
           H2Y4             0.09916
           H2Z4             0.18376
           H3X5            -0.08113
           H3Y5             0.42438
           H3Z5             0.03810
           H4X6            -0.08113
           H4Y6             0.08881
           H4Z6             0.11931
           H5X7             0.03577
           H5Y7            -0.22606
           H5Z7             0.11931
           H6X8             0.03577
           H6Y8             0.10951
           H6Z8             0.03810


 Frequencies dumped to record   5400.2
 Frequency information read from record  5400.2

 FREQUENCIES * CALCULATION OF THERMODYNAMICAL PROPERTIES

 Temperature   298.150 [K]  Pressure   1.00000 [atm]
 Atom  1: B1        Mass  10.81000
 Atom  2: H1        Mass   1.00794
 Atom  3: B2        Mass  10.81000
 Atom  4: H2        Mass   1.00794
 Atom  5: H3        Mass   1.00794
 Atom  6: H4        Mass   1.00794
 Atom  7: H5        Mass   1.00794
 Atom  8: H6        Mass   1.00794

 Molecular Mass:    27.66764 [a.u.]
 Moments of Inertia         100.21341   108.15851    21.54975 [a.u.]
 Point Group D2H   Order of principal axis 2
 Rotational Symmetry factor  4.0
 Rotational Temperatures      0.86428     0.80079     4.01917 [K]
 Rotational Constants        18.00871    16.68582    83.74639 [GHz]


 ? Warning
 ? Using the 1 vibrational modes with wavenumbers < 1000 [1/cm] may cause significant error at T=298.15 [K]: Use 0.5*RT instead.
 ? The problem occurs in therm

 Vibrational Temperatures [K]    645.28  1274.04  1298.26  1440.94  1569.31
                                1721.70  1805.88  2004.47  2057.39  2086.81
                                2634.68  2808.48  3366.29  3582.20  4638.44
                                4643.47  4876.12  4878.69

 Zero-Point vibrational Energy      196.773 [kJ/Mol]
                                     47.030 [kcal/Mol]

 Electronic Energy at 0 [K]:                       -52.166105 [H]
 Electronic Energy + Zero-Point correction:        -52.091158 [H]
 Electronic Energy at     298.150 [K]:             -52.087834 [H]
 Enthalpy H at            298.150 [K]:             -52.086890 [H]
 Free Enthalpy G at       298.150 [K]:             -52.112828 [H]

 Partition Function  Z                 log10(Z)          ln(Z)
 Electronic      0.100000D+01          0.000000          0.000000
 Translation     0.572043D+07          6.757429         15.559554
 Rotation        0.136777D+04          3.136014          7.220938
 Vibration       0.118644D+01          0.074246          0.170958
 Vibration    1  0.112973D+01          0.052975          0.121979
 Total           0.928300D+10          9.967688         22.780493

                       H(T)-H(0)              Cv                 S
                       [kJ/Mol]          [J/Mol K]          [J/Mol K] 
 Electronic               0.000              0.000              0.000
 Translation              3.718             12.472            150.156
 Rotation                 3.718             12.472             72.510
 Vibration                1.289             15.724              5.745
 Vibration  1             3.379              5.708              3.349
 Volume (RT)              2.479              0.000              0.000
 Total                   11.205             40.668            228.411

 Thermal energies including ZPE:

 H(T)-E(0)              207.978 kJ/Mol
 U(T)-E(0)              205.499 kJ/Mol

                       H(T)-H(0)              Cv                 S
                       [kcal/Mol]        [cal/Mol K]        [cal/Mol K] 
 Electronic               0.000              0.000              0.000
 Translation              0.889              2.981             35.888
 Rotation                 0.889              2.981             17.330
 Vibration                0.308              3.758              1.373
 Vibration  1             0.808              1.364              0.800
 Volume (RT)              0.592              0.000              0.000
 Total                    2.678              9.720             54.592

 Thermal energies including ZPE:

 H(T)-E(0)               49.708 kcal/Mol
 U(T)-E(0)               49.115 kcal/Mol

 Recomputing wavefunction at initial geometry


 **********************************************************************************************************************************
 DATASETS  * FILE   NREC   LENGTH (MB)   RECORD NAMES
              1      18       29.09       500      610      700      900      950      970     1000      129      960     1100   
                                          VAR    BASINP    GEOM    SYMINP    ZMAT    AOBASIS   BASIS     P2S    ABASIS      S 
                                         1400     1410     1200     1210     1080     1600     1650     1700   
                                           T        V       H0       H01     AOSYM     SMH    MOLCAS    OPER   

              2       7        0.48       700     1000      520     2100     5300     5450     5400   
                                         GEOM     BASIS   MCVARS     RHF     HESS     NMOD     FREQ   

 PROGRAMS   *        TOTAL      FREQ      OPTG    HF-SCF       INT
 CPU TIMES  *        15.60      3.77      3.52      1.92      1.68
 REAL TIME  *        23.80 SEC
 DISK USED  *        35.42 MB (local),      733.48 MB (total)
 SF USED    *         0.02 MB
 GA USED    *         0.00 MB       (max)       0.00 MB       (current)
 **********************************************************************************************************************************


 PROGRAM * HESSIAN

 Computing numerical hessian using default procedure for command HF-SCF

 Symmetry elements for unique displacements: X  Y  Z  

 Using AUTO symmetry option

 Running default procedure: HF-SCF000


 Numerically approximating hessian using central gradient differences

 Task list generated. Total number of displacements:     13


 Switching to mppx mode, nproc= 19

 All  13 tasks completed.  CPU=      0.25 sec, Elapsed=      0.81 sec.

 Switching back to mpp mode, nproc= 19


 HF-SCF hessian saved to record  5301.2

 PROGRAM * FREQUENCIES (Calculation of harmonic vibrational spectra for HF-SCF)


 Permanent Dipole Moment [debye]
     1-   3    0.000000    0.000000    0.000000

 Dipole Moment Norm    0.0000000 [debye]

 Dipole Moment Derivatives [debye/ang]
              1             2             3             4             5             6             7             8
    1    0.55301944    0.00000000    0.00000000    0.00324189    0.00000000    0.00000000    0.55301944    0.00000000
    2    0.00000000    1.24587880    0.00000000    0.00000000   -0.04782581    0.00000000    0.00000000    1.24587880
    3    0.00000000    0.00000000    4.40596242    0.00000000    0.00000000   -3.32613884    0.00000000    0.00000000
              9            10            11            12            13            14            15            16
    1    0.00000000    0.00324189    0.00000000    0.00000000   -0.27811869    0.00000000   -0.25223132   -0.27811869
    2    0.00000000    0.00000000   -0.04782581    0.00000000    0.00000000   -0.59898872    0.00000000    0.00000000
    3    4.40596242    0.00000000    0.00000000   -3.32613884   -0.26052001    0.00000000   -0.53990383    0.26052001
             17            18            19            20            21            22            23            24
    1    0.00000000    0.25223132   -0.27811869    0.00000000   -0.25223132   -0.27811869    0.00000000    0.25223132
    2   -0.59898872    0.00000000    0.00000000   -0.59898872    0.00000000    0.00000000   -0.59898872    0.00000000
    3    0.00000000   -0.53990383   -0.26052001    0.00000000   -0.53990383    0.26052001    0.00000000   -0.53990383

 Projecting out rotations and translations

   Low Vibration      Wavenumber
        Nr             [1/cm] 
        1                0.00
        2                0.00
        3                0.00
        4                0.00
        5                0.00
        6                0.00

     Vibration        Wavenumber
        Nr             [1/cm] 
        1              448.49
        2              885.50
        3              902.34
        4             1001.51
        5             1090.73
        6             1196.65
        7             1255.16
        8             1393.18
        9             1429.97
       10             1450.41
       11             1831.21
       12             1952.00
       13             2339.70
       14             2489.77
       15             3223.90
       16             3227.39
       17             3389.09
       18             3390.88

 FREQUENCIES * CALCULATION OF NORMAL MODES FOR HF-SCF


 Atomic Coordinates

  Nr  Atom  Charge       X              Y              Z

   1   B1    5.00    0.000000000    0.000000000    1.705068639
   2   H1    1.00    0.000000000    1.836945541    0.000000000
   3   B2    5.00    0.000000000    0.000000000   -1.705068639
   4   H2    1.00    0.000000000   -1.836945541    0.000000000
   5   H3    1.00   -1.912541158    0.000000000    2.752972924
   6   H4    1.00    1.912541158    0.000000000    2.752972924
   7   H5    1.00    1.912541158    0.000000000   -2.752972924
   8   H6    1.00   -1.912541158    0.000000000   -2.752972924

 Gradient norm at reference geometry: 0.14569D-03

 Normal Modes

                              1 B2u       2 B2g       3 Ag        4 Au        5 B1g
 Wavenumbers [cm-1]          448.49      885.50      902.34     1001.51     1090.73
 Intensities [km/mol]         14.41        0.00        0.00        0.00        0.00
 Intensities [relative]        1.54        0.00        0.00        0.00        0.00
           B1X1            -0.00058     0.00000    -0.00000    -0.00000    -0.11582
           B1Y1            -0.00000     0.13112    -0.00000     0.00000    -0.00000
           B1Z1            -0.00000     0.00000     0.19562     0.00000     0.00000
           H1X2             0.39911    -0.00000     0.00000     0.00000    -0.00000
           H1Y2             0.00000    -0.00000    -0.08369     0.00000     0.00000
           H1Z2            -0.00000     0.20290    -0.00000     0.00000    -0.00000
           B2X3            -0.00058     0.00000    -0.00000    -0.00000     0.11582
           B2Y3            -0.00000    -0.13112     0.00000     0.00000     0.00000
           B2Z3            -0.00000    -0.00000    -0.19562    -0.00000    -0.00000
           H2X4             0.39911     0.00000    -0.00000    -0.00000    -0.00000
           H2Y4             0.00000     0.00000     0.08369     0.00000     0.00000
           H2Z4            -0.00000    -0.20290     0.00000    -0.00000     0.00000
           H3X5            -0.19647     0.00000    -0.00962     0.00000     0.10187
           H3Y5            -0.00000    -0.36778     0.00000     0.49803    -0.00000
           H3Z5            -0.36026     0.00000     0.19809     0.00000     0.40708
           H4X6            -0.19647     0.00000     0.00962    -0.00000     0.10187
           H4Y6            -0.00000    -0.36778     0.00000    -0.49803    -0.00000
           H4Z6             0.36026     0.00000     0.19809     0.00000    -0.40708
           H5X7            -0.19647    -0.00000     0.00962    -0.00000    -0.10187
           H5Y7            -0.00000     0.36778    -0.00000     0.49803    -0.00000
           H5Z7            -0.36026    -0.00000    -0.19809    -0.00000    -0.40708
           H6X8            -0.19647     0.00000    -0.00962    -0.00000    -0.10187
           H6Y8            -0.00000     0.36778    -0.00000    -0.49803    -0.00000
           H6Z8             0.36026    -0.00000    -0.19809    -0.00000     0.40708

                              6 B1u       7 B2u       8 B3g       9 B3u      10 Ag 
 Wavenumbers [cm-1]         1196.65     1255.16     1393.18     1429.97     1450.41
 Intensities [km/mol]         66.27        7.43        0.00      182.89        0.00
 Intensities [relative]        7.08        0.79        0.00       19.54        0.00
           B1X1            -0.00000    -0.06553    -0.00000    -0.00000    -0.00000
           B1Y1            -0.06987    -0.00000     0.00000     0.00000     0.00000
           B1Z1            -0.00000     0.00000     0.00000    -0.07612    -0.06870
           H1X2            -0.00000     0.54830     0.58265    -0.00000     0.00000
           H1Y2            -0.16378    -0.00000    -0.00000    -0.00000     0.07281
           H1Z2            -0.00000     0.00000     0.00000     0.04616     0.00000
           B2X3             0.00000    -0.06553    -0.00000    -0.00000    -0.00000
           B2Y3            -0.06987     0.00000    -0.00000    -0.00000     0.00000
           B2Z3             0.00000     0.00000    -0.00000    -0.07612     0.06870
           H2X4             0.00000     0.54830    -0.58265    -0.00000    -0.00000
           H2Y4            -0.16378     0.00000     0.00000     0.00000    -0.07281
           H2Z4             0.00000     0.00000     0.00000     0.04616     0.00000
           H3X5             0.00000     0.07726    -0.00000     0.26000     0.25809
           H3Y5             0.45655     0.00000    -0.27981    -0.00000    -0.00000
           H3Z5             0.00000     0.26214    -0.00000     0.38509     0.39174
           H4X6            -0.00000     0.07726     0.00000    -0.26000    -0.25809
           H4Y6             0.45655    -0.00000     0.27981    -0.00000     0.00000
           H4Z6            -0.00000    -0.26214    -0.00000     0.38509     0.39174
           H5X7            -0.00000     0.07726     0.00000     0.26000    -0.25809
           H5Y7             0.45655    -0.00000     0.27981    -0.00000     0.00000
           H5Z7            -0.00000     0.26214     0.00000     0.38509    -0.39174
           H6X8             0.00000     0.07726    -0.00000    -0.26000     0.25809
           H6Y8             0.45655     0.00000    -0.27981    -0.00000    -0.00000
           H6Z8            -0.00000    -0.26214     0.00000     0.38509    -0.39174

                             11 B3u      12 B2g      13 B1u      14 Ag       15 B3u
 Wavenumbers [cm-1]         1831.21     1952.00     2339.70     2489.77     3223.90
 Intensities [km/mol]        936.19        0.00        6.22        0.00       20.56
 Intensities [relative]      100.00        0.00        0.66        0.00        2.20
           B1X1             0.00000     0.00000    -0.00000    -0.00000     0.00000
           B1Y1             0.00000     0.00717    -0.07231     0.00000     0.00000
           B1Z1            -0.04600     0.00000     0.00000     0.02784     0.04691
           H1X2            -0.00000    -0.00000    -0.00000    -0.00000    -0.00000
           H1Y2            -0.00000     0.00000     0.65810     0.69432     0.00000
           H1Z2             0.67580     0.64902     0.00000    -0.00000    -0.03293
           B2X3            -0.00000    -0.00000     0.00000     0.00000    -0.00000
           B2Y3             0.00000    -0.00717    -0.07231     0.00000     0.00000
           B2Z3            -0.04600     0.00000    -0.00000    -0.02784     0.04691
           H2X4             0.00000     0.00000     0.00000    -0.00000    -0.00000
           H2Y4            -0.00000    -0.00000     0.65810    -0.69432    -0.00000
           H2Z4             0.67580    -0.64902     0.00000     0.00000    -0.03293
           H3X5             0.00294    -0.00000    -0.00000    -0.05314     0.42476
           H3Y5            -0.00000     0.19273     0.05870    -0.00000    -0.00000
           H3Z5            -0.09124    -0.00000     0.00000    -0.00333    -0.23509
           H4X6            -0.00294     0.00000     0.00000     0.05314    -0.42476
           H4Y6            -0.00000     0.19273     0.05870    -0.00000    -0.00000
           H4Z6            -0.09124    -0.00000    -0.00000    -0.00333    -0.23509
           H5X7             0.00294    -0.00000     0.00000     0.05314     0.42476
           H5Y7            -0.00000    -0.19273     0.05870    -0.00000    -0.00000
           H5Z7            -0.09124    -0.00000     0.00000     0.00333    -0.23509
           H6X8            -0.00294     0.00000    -0.00000    -0.05314    -0.42476
           H6Y8             0.00000    -0.19273     0.05870    -0.00000    -0.00000
           H6Z8            -0.09124    -0.00000    -0.00000     0.00333    -0.23509

                             16 Ag       17 B1g      18 B2u
 Wavenumbers [cm-1]         3227.39     3389.09     3390.88
 Intensities [km/mol]          0.00        0.00        4.19
 Intensities [relative]        0.00        0.00        0.45
           B1X1             0.00000    -0.07719    -0.07626
           B1Y1             0.00000     0.00000     0.00000
           B1Z1             0.04993     0.00000     0.00000
           H1X2            -0.00000    -0.00000    -0.00022
           H1Y2             0.04094    -0.00000     0.00000
           H1Z2             0.00000    -0.00000     0.00000
           B2X3             0.00000     0.07719    -0.07626
           B2Y3             0.00000     0.00000    -0.00000
           B2Z3            -0.04993     0.00000    -0.00000
           H2X4             0.00000    -0.00000    -0.00022
           H2Y4            -0.04094     0.00000    -0.00000
           H2Z4             0.00000    -0.00000     0.00000
           H3X5             0.42250     0.40937     0.40905
           H3Y5             0.00000    -0.00000    -0.00000
           H3Z5            -0.23521    -0.22021    -0.22255
           H4X6            -0.42250     0.40937     0.40905
           H4Y6            -0.00000    -0.00000    -0.00000
           H4Z6            -0.23521     0.22021     0.22255
           H5X7            -0.42250    -0.40937     0.40905
           H5Y7             0.00000    -0.00000    -0.00000
           H5Z7             0.23521     0.22021    -0.22255
           H6X8             0.42250    -0.40937     0.40905
           H6Y8             0.00000    -0.00000     0.00000
           H6Z8             0.23521    -0.22021     0.22255


 Normal Modes of low/zero frequencies

                                  1           2           3           4           5
 Wavenumbers [cm-1]            0.00        0.00        0.00        0.00        0.00
 Intensities [km/mol]          0.00        0.00        0.00        0.00        0.00
 Intensities [relative]        0.00        0.00        0.00        0.00        0.00
           B1X1             0.00048    -0.00179     0.00087    -0.00029     0.07792
           B1Y1             0.04305     0.02422    -0.01012    -0.03837     0.23508
           B1Z1             0.04026     0.14922    -0.05794    -0.08659    -0.03524
           H1X2             0.11936    -0.06134     0.30985    -0.23879     0.00680
           H1Y2             0.07121     0.07220     0.05246     0.06254     0.13180
           H1Z2             0.07060     0.20091     0.00948     0.02212    -0.14651
           B2X3             0.22036    -0.09946    -0.03295    -0.03138    -0.02201
           B2Y3             0.09936     0.12018     0.11504     0.16344     0.02852
           B2Z3             0.04026     0.14922    -0.05794    -0.08659    -0.03524
           H2X4             0.10148    -0.03992    -0.34193     0.20712     0.04912
           H2Y4             0.07121     0.07220     0.05246     0.06254     0.13180
           H2Z4             0.00993     0.09753    -0.12535    -0.19530     0.07602
           H3X5            -0.06709     0.02822     0.01126     0.00926     0.10863
           H3Y5             0.03506    -0.01642     0.29072    -0.33252     0.27652
           H3Z5            -0.08306     0.20400    -0.03897    -0.06915     0.02080
           H4X6            -0.06709     0.02822     0.01126     0.00926     0.10863
           H4Y6             0.01644     0.00588    -0.38788     0.13175     0.32058
           H4Z6             0.16358     0.09444    -0.07690    -0.10402    -0.09129
           H5X7             0.28793    -0.12948    -0.04334    -0.04093    -0.05271
           H5Y7             0.10736     0.16082    -0.18580     0.45759    -0.01293
           H5Z7             0.16358     0.09444    -0.07690    -0.10402    -0.09129
           H6X8             0.28793    -0.12948    -0.04334    -0.04093    -0.05271
           H6Y8             0.12598     0.13852     0.49280    -0.00668    -0.05699
           H6Z8            -0.08306     0.20400    -0.03897    -0.06915     0.02080

                                  6
 Wavenumbers [cm-1]            0.00
 Intensities [km/mol]          0.00
 Intensities [relative]        0.00
           B1X1             0.23864
           B1Y1            -0.07667
           B1Z1             0.01265
           H1X2             0.14712
           H1Y2            -0.04275
           H1Z2             0.04920
           B2X3             0.04490
           B2Y3            -0.00883
           B2Z3             0.01265
           H2X4             0.13642
           H2Y4            -0.04275
           H2Z4            -0.02389
           H3X5             0.29817
           H3Y5            -0.09195
           H3Z5             0.12131
           H4X6             0.29817
           H4Y6            -0.10309
           H4Z6            -0.09600
           H5X7            -0.01464
           H5Y7             0.00645
           H5Z7            -0.09600
           H6X8            -0.01464
           H6Y8             0.01759
           H6Z8             0.12131


 Frequencies dumped to record   5401.2
 Frequency information read from record  5401.2

 FREQUENCIES * CALCULATION OF THERMODYNAMICAL PROPERTIES

 Temperature   298.150 [K]  Pressure   1.00000 [atm]
 Atom  1: B1        Mass  10.81000
 Atom  2: H1        Mass   1.00794
 Atom  3: B2        Mass  10.81000
 Atom  4: H2        Mass   1.00794
 Atom  5: H3        Mass   1.00794
 Atom  6: H4        Mass   1.00794
 Atom  7: H5        Mass   1.00794
 Atom  8: H6        Mass   1.00794

 Molecular Mass:    27.66764 [a.u.]
 Moments of Inertia         100.21341   108.15851    21.54975 [a.u.]
 Point Group D2H   Order of principal axis 2
 Rotational Symmetry factor  4.0
 Rotational Temperatures      0.86428     0.80079     4.01917 [K]
 Rotational Constants        18.00871    16.68582    83.74639 [GHz]


 ? Warning
 ? Using the 1 vibrational modes with wavenumbers < 1000 [1/cm] may cause significant error at T=298.15 [K]: Use 0.5*RT instead.
 ? The problem occurs in therm

 Vibrational Temperatures [K]    645.28  1274.04  1298.26  1440.94  1569.31
                                1721.70  1805.88  2004.47  2057.39  2086.81
                                2634.68  2808.48  3366.29  3582.20  4638.44
                                4643.47  4876.12  4878.69

 Zero-Point vibrational Energy      196.773 [kJ/Mol]
                                     47.030 [kcal/Mol]

 Electronic Energy at 0 [K]:                       -52.166105 [H]
 Electronic Energy + Zero-Point correction:        -52.091158 [H]
 Electronic Energy at     298.150 [K]:             -52.087834 [H]
 Enthalpy H at            298.150 [K]:             -52.086890 [H]
 Free Enthalpy G at       298.150 [K]:             -52.112828 [H]

 Partition Function  Z                 log10(Z)          ln(Z)
 Electronic      0.100000D+01          0.000000          0.000000
 Translation     0.572043D+07          6.757429         15.559554
 Rotation        0.136777D+04          3.136014          7.220938
 Vibration       0.118644D+01          0.074246          0.170958
 Vibration    1  0.112973D+01          0.052975          0.121979
 Total           0.928300D+10          9.967688         22.780493

                       H(T)-H(0)              Cv                 S
                       [kJ/Mol]          [J/Mol K]          [J/Mol K] 
 Electronic               0.000              0.000              0.000
 Translation              3.718             12.472            150.156
 Rotation                 3.718             12.472             72.510
 Vibration                1.289             15.724              5.745
 Vibration  1             3.379              5.708              3.349
 Volume (RT)              2.479              0.000              0.000
 Total                   11.205             40.668            228.411

 Thermal energies including ZPE:

 H(T)-E(0)              207.978 kJ/Mol
 U(T)-E(0)              205.499 kJ/Mol

                       H(T)-H(0)              Cv                 S
                       [kcal/Mol]        [cal/Mol K]        [cal/Mol K] 
 Electronic               0.000              0.000              0.000
 Translation              0.889              2.981             35.888
 Rotation                 0.889              2.981             17.330
 Vibration                0.308              3.758              1.373
 Vibration  1             0.808              1.364              0.800
 Volume (RT)              0.592              0.000              0.000
 Total                    2.678              9.720             54.592

 Thermal energies including ZPE:

 H(T)-E(0)               49.708 kcal/Mol
 U(T)-E(0)               49.115 kcal/Mol

 Recomputing wavefunction at initial geometry


 **********************************************************************************************************************************
 DATASETS  * FILE   NREC   LENGTH (MB)   RECORD NAMES
              1      18       29.09       500      610      700      900      950      970     1000      129      960     1100   
                                          VAR    BASINP    GEOM    SYMINP    ZMAT    AOBASIS   BASIS     P2S    ABASIS      S 
                                         1400     1410     1200     1210     1080     1600     1650     1700   
                                           T        V       H0       H01     AOSYM     SMH    MOLCAS    OPER   

              2      10        0.50       700     1000      520     2100     5300     5450     5400     5301     5451     5401   
                                         GEOM     BASIS   MCVARS     RHF     HESS     NMOD     FREQ     HESS     NMOD     FREQ   

 PROGRAMS   *        TOTAL      FREQ      FREQ      OPTG    HF-SCF       INT
 CPU TIMES  *        18.75      3.12      3.77      3.52      1.92      1.68
 REAL TIME  *        29.68 SEC
 DISK USED  *        35.42 MB (local),      733.53 MB (total)
 SF USED    *         0.02 MB
 GA USED    *         0.00 MB       (max)       0.00 MB       (current)
 **********************************************************************************************************************************

 HF/STO-3G energy=    -52.166104877108

    OPTG(HF-SCF)          HF-SCF
    -52.16610488    -52.16610482
 **********************************************************************************************************************************
 Molpro calculation terminated with 2 warning(s)
