
 Working directory              : /tmp/charlie/molpro.NxPPOCqXYS/
 Global scratch directory       : /tmp/charlie/molpro.NxPPOCqXYS/
 Wavefunction directory         : /home/charlie/wfu/
 Main file repository           : /tmp/charlie/molpro.NxPPOCqXYS/

 id        : dap

 Nodes     nprocs
 charliebox   19
 Distribution of processes:   nprocs(total)=   20   nprocs(compute)=   19   nprocs(helper)=    1
 GA implementation: MPI file
 GA implementation (serial work in mppx): MPI file

 Using customized tuning parameters: mindgm=1; mindgv=20; mindgc=4; mindgr=1; noblas=0; minvec=7
 default implementation of scratch files=sf  


 Variables initialized (1059), CPU time= 1.00 sec
 ***,3d-metal example: geometry optimization then frequency (start from off geometry)
 memory,400,m
 symmetry,nosym
 geometry={
 Fe    0.000000    0.000000    0.000000
 O     2.100000    0.000000    0.000000
 H     2.100000    0.960000    0.000000
 H     2.100000   -0.960000    0.000000
 O    -2.100000    0.000000    0.000000
 H    -2.100000    0.960000    0.000000
 H    -2.100000   -0.960000    0.000000
 O     0.000000    2.100000    0.000000
 H     0.000000    2.100000    0.960000
 H     0.000000    2.100000   -0.960000
 O     0.000000   -2.100000    0.000000
 H     0.000000   -2.100000    0.960000
 H     0.000000   -2.100000   -0.960000
 O     0.000000    0.000000    2.100000
 H     0.960000    0.000000    2.100000
 H    -0.960000    0.000000    2.100000
 O     0.000000    0.000000   -2.100000
 H     0.960000    0.000000   -2.100000
 H    -0.960000    0.000000   -2.100000
 }
 set,charge=2
 symmetry,nosym                                               ! disable point-group symmetry to avoid symmetry-convergence problems
 
 basis={
 default,cc-pVDZ                                                              ! basis for main-group atoms (fast for initial optim)
 }
 
 {uhf;wf,,,4}                                                            ! start an unrestricted HF (good for open-shell 3d metals)
 
 optg,maxit=200
 
 frequencies                                                                     ! calculate vibrational frequencies
 print,low                                                                       ! print frequencies+modes of zero frequencies
 thermo
 temp,200,400,50
 
 Commands initialized (838), CPU time= 0.01 sec, 726 directives.
 Default parameters read. Elapsed time= 0.09 sec

 Checking input...
 Passed
1


                                         ***  PROGRAM SYSTEM MOLPRO  ***
                                       Copyright, TTI GmbH Stuttgart, 2015
                                  Version 2025.2 linked Wed May 14 02:42:57 2025


 **********************************************************************************************************************************
 LABEL *   3d-metal example: geometry optimization then frequency (start from off geometry)                                                                              
                                                                                         DATE: 04-Dec-25          TIME: 01:47:17  
 **********************************************************************************************************************************

 SHA1:             57ceb174f4fe6691bc75d8fe641d0297fc3c2b28
 **********************************************************************************************************************************

 Memory per process:       400 MW
 Total memory per node:   7600 MW

 GA preallocation disabled
 GA check disabled

 Variable memory set to 400.0 MW


 ZSYMEL=NOSYM


 Geometry recognized as XYZ

 CHARGE          =       2.00000000                                  
 SETTING BASIS          =    CC-PVDZ


 Recomputing integrals since basis changed


 Using spherical harmonics

 Library entry FE     S cc-pVDZ              selected for orbital group  1
 Library entry FE     P cc-pVDZ              selected for orbital group  1
 Library entry FE     D cc-pVDZ              selected for orbital group  1
 Library entry FE     F cc-pVDZ              selected for orbital group  1
 Library entry O      S cc-pVDZ              selected for orbital group  2
 Library entry O      P cc-pVDZ              selected for orbital group  2
 Library entry O      D cc-pVDZ              selected for orbital group  2
 Library entry H      S cc-pVDZ              selected for orbital group  3
 Library entry H      P cc-pVDZ              selected for orbital group  3


 PROGRAM * SEWARD (Integral evaluation for generally contracted gaussian basis sets)     Author: Roland Lindh, 1990

 Geometry written to block  1 of record 700


 Point group  C1  



 ATOMIC COORDINATES

 NR  ATOM    CHARGE       X              Y              Z

   1  FE     26.00    0.000000000    0.000000000    0.000000000
   2  O       8.00    3.968424862    0.000000000    0.000000000
   3  H       1.00    3.968424862    1.814137080    0.000000000
   4  H       1.00    3.968424862   -1.814137080    0.000000000
   5  O       8.00   -3.968424862    0.000000000    0.000000000
   6  H       1.00   -3.968424862    1.814137080    0.000000000
   7  H       1.00   -3.968424862   -1.814137080    0.000000000
   8  O       8.00    0.000000000    3.968424862    0.000000000
   9  H       1.00    0.000000000    3.968424862    1.814137080
  10  H       1.00    0.000000000    3.968424862   -1.814137080
  11  O       8.00    0.000000000   -3.968424862    0.000000000
  12  H       1.00    0.000000000   -3.968424862    1.814137080
  13  H       1.00    0.000000000   -3.968424862   -1.814137080
  14  O       8.00    0.000000000    0.000000000    3.968424862
  15  H       1.00    1.814137080    0.000000000    3.968424862
  16  H       1.00   -1.814137080    0.000000000    3.968424862
  17  O       8.00    0.000000000    0.000000000   -3.968424862
  18  H       1.00    1.814137080    0.000000000   -3.968424862
  19  H       1.00   -1.814137080    0.000000000   -3.968424862

 Bond lengths in Bohr (Angstrom)

 1-2  3.968424862  1-3  4.363426317  1-4  4.363426317  1-5  3.968424862  1-6  4.363426317
     ( 2.100000000)     ( 2.309025769)     ( 2.309025769)     ( 2.100000000)     ( 2.309025769)

  1- 7  4.363426317   1- 8  3.968424862   1- 9  4.363426317   1-10  4.363426317   1-11  3.968424862
       ( 2.309025769)       ( 2.100000000)       ( 2.309025769)       ( 2.309025769)       ( 2.100000000)

  1-12  4.363426317   1-13  4.363426317   1-14  3.968424862   1-15  4.363426317   1-16  4.363426317
       ( 2.309025769)       ( 2.309025769)       ( 2.100000000)       ( 2.309025769)       ( 2.309025769)

  1-17  3.968424862   1-18  4.363426317   1-19  4.363426317   2- 3  1.814137080   2- 4  1.814137080
       ( 2.100000000)       ( 2.309025769)       ( 2.309025769)       ( 0.960000000)       ( 0.960000000)

  5- 6  1.814137080   5- 7  1.814137080   8- 9  1.814137080   8-10  1.814137080  11-12  1.814137080
       ( 0.960000000)       ( 0.960000000)       ( 0.960000000)       ( 0.960000000)       ( 0.960000000)

 11-13  1.814137080  14-15  1.814137080  14-16  1.814137080  17-18  1.814137080  17-19  1.814137080
       ( 0.960000000)       ( 0.960000000)       ( 0.960000000)       ( 0.960000000)       ( 0.960000000)

 Bond angles

  1-2-3   90.00000000   1-2-4   90.00000000   1-3-2   65.43282868   1-4-2   65.43282868

  1-5-6   90.00000000   1-5-7   90.00000000   1-6-5   65.43282868   1-7-5   65.43282868

  1- 8- 9   90.00000000   1- 8-10   90.00000000   1- 9- 8   65.43282868   1-10- 8   65.43282868

  1-11-12   90.00000000   1-11-13   90.00000000   1-12-11   65.43282868   1-13-11   65.43282868

  1-14-15   90.00000000   1-14-16   90.00000000   1-15-14   65.43282868   1-16-14   65.43282868

  1-17-18   90.00000000   1-17-19   90.00000000   1-18-17   65.43282868   1-19-17   65.43282868

  2-1-3   24.56717132   2-1-4   24.56717132   2-1-5  180.00000000   2-1-6  155.43282868

  2- 1- 7  155.43282868   2- 1- 8   90.00000000   2- 1- 9   90.00000000   2- 1-10   90.00000000

  2- 1-11   90.00000000   2- 1-12   90.00000000   2- 1-13   90.00000000   2- 1-14   90.00000000

  2- 1-15   65.43282868   2- 1-16  114.56717132   2- 1-17   90.00000000   2- 1-18   65.43282868

  2- 1-19  114.56717132   3- 1- 4   49.13434264   3- 1- 5  155.43282868   3- 1- 6  130.86565736

  3- 1- 7  180.00000000   3- 1- 8   65.43282868   3- 1- 9   67.78254149   3- 1-10   67.78254149

  3- 1-11  114.56717132   3- 1-12  112.21745851   3- 1-13  112.21745851   3- 1-14   90.00000000

  3- 1-15   67.78254149   3- 1-16  112.21745851   3- 1-17   90.00000000   3- 1-18   67.78254149

  3- 1-19  112.21745851   3- 2- 4  180.00000000   4- 1- 5  155.43282868   4- 1- 6  180.00000000

  4- 1- 7  130.86565736   4- 1- 8  114.56717132   4- 1- 9  112.21745851   4- 1-10  112.21745851

  4- 1-11   65.43282868   4- 1-12   67.78254149   4- 1-13   67.78254149   4- 1-14   90.00000000

  4- 1-15   67.78254149   4- 1-16  112.21745851   4- 1-17   90.00000000   4- 1-18   67.78254149

  4- 1-19  112.21745851   5- 1- 6   24.56717132   5- 1- 7   24.56717132   5- 1- 8   90.00000000

  5- 1- 9   90.00000000   5- 1-10   90.00000000   5- 1-11   90.00000000   5- 1-12   90.00000000

  5- 1-13   90.00000000   5- 1-14   90.00000000   5- 1-15  114.56717132   5- 1-16   65.43282868

  5- 1-17   90.00000000   5- 1-18  114.56717132   5- 1-19   65.43282868   6- 1- 7   49.13434264

  6- 1- 8   65.43282868   6- 1- 9   67.78254149   6- 1-10   67.78254149   6- 1-11  114.56717132

  6- 1-12  112.21745851   6- 1-13  112.21745851   6- 1-14   90.00000000   6- 1-15  112.21745851

  6- 1-16   67.78254149   6- 1-17   90.00000000   6- 1-18  112.21745851   6- 1-19   67.78254149

  6- 5- 7  180.00000000   7- 1- 8  114.56717132   7- 1- 9  112.21745851   7- 1-10  112.21745851

  7- 1-11   65.43282868   7- 1-12   67.78254149   7- 1-13   67.78254149   7- 1-14   90.00000000

  7- 1-15  112.21745851   7- 1-16   67.78254149   7- 1-17   90.00000000   7- 1-18  112.21745851

  7- 1-19   67.78254149   8- 1- 9   24.56717132   8- 1-10   24.56717132   8- 1-11  180.00000000

  8- 1-12  155.43282868   8- 1-13  155.43282868   8- 1-14   90.00000000   8- 1-15   90.00000000

  8- 1-16   90.00000000   8- 1-17   90.00000000   8- 1-18   90.00000000   8- 1-19   90.00000000

  9- 1-10   49.13434264   9- 1-11  155.43282868   9- 1-12  130.86565736   9- 1-13  180.00000000

  9- 1-14   65.43282868   9- 1-15   67.78254149   9- 1-16   67.78254149   9- 1-17  114.56717132

  9- 1-18  112.21745851   9- 1-19  112.21745851   9- 8-10  180.00000000  10- 1-11  155.43282868

 10- 1-12  180.00000000  10- 1-13  130.86565736  10- 1-14  114.56717132  10- 1-15  112.21745851

 10- 1-16  112.21745851  10- 1-17   65.43282868  10- 1-18   67.78254149  10- 1-19   67.78254149

 11- 1-12   24.56717132  11- 1-13   24.56717132  11- 1-14   90.00000000  11- 1-15   90.00000000

 11- 1-16   90.00000000  11- 1-17   90.00000000  11- 1-18   90.00000000  11- 1-19   90.00000000

 12- 1-13   49.13434264  12- 1-14   65.43282868  12- 1-15   67.78254149  12- 1-16   67.78254149

 12- 1-17  114.56717132  12- 1-18  112.21745851  12- 1-19  112.21745851  12-11-13  180.00000000

 13- 1-14  114.56717132  13- 1-15  112.21745851  13- 1-16  112.21745851  13- 1-17   65.43282868

 13- 1-18   67.78254149  13- 1-19   67.78254149  14- 1-15   24.56717132  14- 1-16   24.56717132

 14- 1-17  180.00000000  14- 1-18  155.43282868  14- 1-19  155.43282868  15- 1-16   49.13434264

 15- 1-17  155.43282868  15- 1-18  130.86565736  15- 1-19  180.00000000  15-14-16  180.00000000

 16- 1-17  155.43282868  16- 1-18  180.00000000  16- 1-19  130.86565736  17- 1-18   24.56717132

 17- 1-19   24.56717132  18- 1-19   49.13434264  18-17-19  180.00000000

 NUCLEAR CHARGE:                   86
 NUMBER OF PRIMITIVE AOS:         382
 NUMBER OF SYMMETRY AOS:          362
 NUMBER OF CONTRACTIONS:          187   (  187A   )
 NUMBER OF INNER CORE ORBITALS:     5   (    5A   )
 NUMBER OF OUTER CORE ORBITALS:    10   (   10A   )
 NUMBER OF VALENCE ORBITALS:       42   (   42A   )


 NUCLEAR REPULSION ENERGY 690.57410409

 EXTRA SYMMETRY OF AOS IN SYMMETRY 1:   1 1 1 1 1 1 1 1 1 1   1 1 1 1 1 1 1 1 1 1   1 1 1 1 1 1 1 1 1 1   1 1 1 1 1 1 1 1 1 1
                                        2 1 1 1 1 1 1 1 1 1   1 1 1 1 1 1 2 1 1 1   1 2 1 1 1 1 2 1 1 1   1 1 1 1 1 1 1 1 1 1
                                        2 1 1 1 1 2 1 1 1 1   2 1 1 1 1 1 1 1 1 1   1 1 2 1 1 1 1 2 1 1   1 1 2 1 1 1 1 1 1 1
                                        1 1 1 1 1 1 2 1 1 1   1 2 1 1 1 1 2 1 1 1   1 1 1 1 1 1 1 1 1 2   1 1 1 1 1 1 2 1 1 1
                                        1 2 1 1 1 1 1 1 1 1   1 1 1 2 1 1 1 1 1 1   2 1 1 1 1 2 1

 Eigenvalues of metric

         1 0.570E-03 0.570E-03 0.570E-03 0.397E-02 0.629E-02 0.629E-02 0.155E-01 0.155E-01


 Contracted 2-electron integrals neglected if value below      1.0D-11
 AO integral compression algorithm  1   Integral accuracy      1.0D-11

     424.411 MB (compressed) written to integral file ( 33.2%)

     Node minimum: 8.651 MB, node maximum: 32.768 MB


 NUMBER OF SORTED TWO-ELECTRON INTEGRALS:    8137225.     BUFFER LENGTH:  32768
 NUMBER OF SEGMENTS:   1  SEGMENT LENGTH:    8137225      RECORD LENGTH: 524288

 Memory used in sort:       8.69 MW

 SORT1 READ   159641780. AND WROTE     5569066. INTEGRALS IN     16 RECORDS. CPU TIME:     4.71 SEC, REAL TIME:     4.98 SEC
 SORT2 READ   106786182. AND WROTE   154501831. INTEGRALS IN   2052 RECORDS. CPU TIME:     0.16 SEC, REAL TIME:     0.20 SEC

 Node minimum:     8123350.  Node maximum:     8140003. integrals

 OPERATOR DM      FOR CENTER  0  COORDINATES:    0.000000    0.000000    0.000000


 **********************************************************************************************************************************
 DATASETS  * FILE   NREC   LENGTH (MB)   RECORD NAMES
              1      18       30.62       500      610      700      900      950      970     1000      129      960     1100   
                                          VAR    BASINP    GEOM    SYMINP    ZMAT    AOBASIS   BASIS     P2S    ABASIS      S 
                                         1400     1410     1200     1210     1080     1600     1650     1700   
                                           T        V       H0       H01     AOSYM     SMH    MOLCAS    OPER   

 PROGRAMS   *        TOTAL       INT
 CPU TIMES  *        16.30     15.46
 REAL TIME  *        18.99 SEC
 DISK USED  *        31.29 MB (local),        2.21 GB (total)
 GA USED    *         0.00 MB       (max)       0.00 MB       (current)
 **********************************************************************************************************************************


 Program * Unrestricted Hartree-Fock

 Orbital guess generated from atomic densities. Full valence occupancy:   57

 Initial alpha occupancy:  44
 Initial beta  occupancy:  40

 Elapsed time for starting guess:      0.07 sec

 NELEC=   84   SYM=1   MS2=4   THRE=1.0D-08   THRD=1.0D-06   THRG=1.0D-06  HFMA2=F  DIIS_START=2   DIIS_MAX=10   DIIS_INCORE=F

 Initial level shifts:    0.20 (ALPHA)    0.20 (BETA)

 ITER         ETOT            DE          GRAD         DDIFF    DIIS  NEXP   TIME(IT)  TIME(TOT)  DIAG
   1  -1717.47479216 -1717.47479216     0.00D+00     0.00D+00     0     0       0.09      0.16    start
   2  -1717.75972774    -0.28493558     0.87D-02     0.92D-01     1     0       0.40      0.56    diag
   3  -1717.84036175    -0.08063401     0.54D-02     0.19D-01     2     0       0.40      0.96    diag
   4  -1717.85502898    -0.01466723     0.13D-02     0.99D-02     3     0       0.59      1.55    diag
   5  -1717.85714677    -0.00211779     0.51D-03     0.27D-02     4     0       0.36      1.91    diag
   6  -1717.85749186    -0.00034510     0.22D-03     0.98D-03     5     0       0.09      2.00    diag
   7  -1717.85757334    -0.00008148     0.75D-04     0.35D-03     6     0       0.13      2.13    diag
   8  -1717.85759196    -0.00001862     0.32D-04     0.13D-03     7     0       0.68      2.81    diag
   9  -1717.85759464    -0.00000268     0.11D-04     0.48D-04     7     0       0.57      3.38    diag
  10  -1717.85759493    -0.00000028     0.38D-05     0.16D-04     7     0       0.12      3.50    diag/ort
  11  -1717.85759496    -0.00000003     0.16D-05     0.54D-05     8     0       0.82      4.32    diag
  12  -1717.85759496    -0.00000000     0.49D-06     0.23D-05     8     0       0.30      4.62    diag
  13  -1717.85759496    -0.00000000     0.17D-06     0.82D-06     8     0       0.09      4.71    diag

 Final alpha occupancy:  44
 Final beta  occupancy:  40

 !UHF STATE 1.1 Energy              -1717.857594959607
  UHF One-electron energy           -3720.764612999775
  UHF Two-electron energy            1312.332913954513
  UHF Kinetic energy                 1718.282415960699
  UHF Nuclear energy                  690.574104085656
  UHF Virial quotient                  -0.999752764157

 !UHF STATE 1.1 Dipole moment           0.00000000    -0.00000000     0.00000000
 Dipole moment /Debye                   0.00000000    -0.00000000     0.00000000

 EXPECTATION VALUE OF S**2:             6.00669007

 Orbital energies for positive spin:

           1.1          2.1          3.1          4.1          5.1          6.1          7.1          8.1          9.1         10.1
   -261.685875   -32.309713   -27.811387   -27.777832   -27.777828   -20.952307   -20.952300   -20.944120   -20.944114   -20.941084

          11.1         12.1         13.1         14.1         15.1         16.1         17.1         18.1         19.1         20.1
    -20.941078    -4.676649    -3.343567    -3.269960    -3.269860    -1.760346    -1.748534    -1.739389    -1.739172    -1.737134

          21.1         22.1         23.1         24.1         25.1         26.1         27.1         28.1         29.1         30.1
     -1.733417    -1.208496    -1.200760    -1.199996    -1.197994    -1.192128    -1.191800    -1.102214    -1.070872    -1.042880

          31.1         32.1         33.1         34.1         35.1         36.1         37.1         38.1         39.1         40.1
     -1.042851    -0.986535    -0.975863    -0.941341    -0.935918    -0.932588    -0.901772    -0.895992    -0.895186    -0.894413

          41.1         42.1         43.1         44.1         45.1         46.1
     -0.889942    -0.882910    -0.841759    -0.827517    -0.255483    -0.200928

 Orbital energies for negative spin:

           1.1          2.1          3.1          4.1          5.1          6.1          7.1          8.1          9.1         10.1
   -261.683053   -32.183530   -27.664952   -27.664062   -27.664058   -20.950215   -20.950209   -20.941970   -20.941964   -20.939611

          11.1         12.1         13.1         14.1         15.1         16.1         17.1         18.1         19.1         20.1
    -20.939605    -4.324694    -2.887191    -2.887183    -2.837270    -1.754947    -1.742478    -1.733451    -1.732974    -1.732773

          21.1         22.1         23.1         24.1         25.1         26.1         27.1         28.1         29.1         30.1
     -1.727506    -1.200747    -1.198318    -1.195407    -1.192082    -1.190961    -1.189559    -0.973106    -0.929521    -0.926931

          31.1         32.1         33.1         34.1         35.1         36.1         37.1         38.1         39.1         40.1
     -0.924152    -0.913296    -0.909901    -0.907214    -0.900561    -0.899357    -0.886233    -0.886015    -0.884565    -0.799845

          41.1         42.1
     -0.254364    -0.200055


 HOMO    -40.1    -0.799845 =     -21.7649eV
 LUMO     45.1    -0.255483 =      -6.9521eV
 LUMO-HOMO         0.544362 =      14.8128eV

 Orbitals saved in record  2200.2

 Occupation number threshold for pseudo-canonical orbitals: 1.9990 (occupied), 0.0010 (virtual)

 Number of pseudo-canonical occupied orbitals per symmetry:   39
 Number of active natural orbitals per symmetry:               6

 Natural orbitals saved to record    2200.2 (Orbital set 3)

 Orbital spaces for UNO-CAS (Min. occupation: 0.020  Max. occupation: 1.980):

 Closed:       40
 Active:        4


 **********************************************************************************************************************************
 DATASETS  * FILE   NREC   LENGTH (MB)   RECORD NAMES
              1      18       30.62       500      610      700      900      950      970     1000      129      960     1100   
                                          VAR    BASINP    GEOM    SYMINP    ZMAT    AOBASIS   BASIS     P2S    ABASIS      S 
                                         1400     1410     1200     1210     1080     1600     1650     1700   
                                           T        V       H0       H01     AOSYM     SMH    MOLCAS    OPER   

              2       4        2.06       700     1000      520     2200   
                                         GEOM     BASIS   MCVARS     UHF  

 PROGRAMS   *        TOTAL   UHF-SCF       INT
 CPU TIMES  *        21.03      4.73     15.46
 REAL TIME  *        25.45 SEC
 DISK USED  *        32.78 MB (local),        2.24 GB (total)
 SF USED    *         5.63 MB
 GA USED    *         0.00 MB       (max)       0.00 MB       (current)
 **********************************************************************************************************************************


 PROGRAM * OPT (Geometry optimization)     Authors: F. Eckert and H.-J. Werner


 MAXIT cannot be larger than MAXGEOM=100. You can increase MAXGEOM by setting variable MAXGEOM at the top of the input.
 (but it cannot be changed after a restart)



 ? Warning
 ? MAXIT reduced to 100
 ? The problem occurs in optg

 BFGS update of hessian

 *** Long output written to logfile /home/charlie/input_examples/molpro/Fe-optfreq.log ***


 Geometry optimization using default procedure for command UHF-SCF

 Geometry written to block  1 of record 700

 PQS Optimization using delocalized internal coordinates

 Point group th. Number of degrees of freedom:    3

 ITER.   ENERGY(OLD)    ENERGY(NEW)      DE          GRADMAX     GRADNORM    GRADRMS     STEPMAX     STEPLEN     STEPRMS   CPU-time
   1 -1717.85759496 -1717.97969321    -0.12209825  0.19840174  0.22433105  0.06475880  0.46025994  0.50000000  0.14433757      9.65
   2 -1717.97969321 -1718.06038075    -0.08068754  0.09597106  0.16152783  0.05384261  0.29265570  0.50000000  0.16666667     19.15
   3 -1718.06038075 -1718.14156013    -0.08117938  0.11374285  0.16398843  0.05466281  0.33997389  0.50000000  0.16666667     28.77
   4 -1718.14156013 -1718.21753219    -0.07597206  0.11945970  0.15951070  0.05317023  0.37953667  0.50000000  0.28867513     37.92
   5 -1718.21753219 -1718.28132138    -0.06378919  0.08732223  0.14204797  0.04734932  0.31110774  0.50000000  0.28867513     46.49
   6 -1718.28132138 -1718.32642199    -0.04510061  0.07965438  0.11098986  0.03699662  0.36170042  0.50000000  0.28867513     54.23
   7 -1718.32642199 -1718.34700416    -0.02058217  0.03955974  0.06755610  0.02251870  0.29150704  0.50000000  0.28867513     62.46
   8 -1718.34700416 -1718.34773592    -0.00073176  0.01125511  0.01369313  0.00456438  0.08808713  0.11939303  0.06893160     70.43
   9 -1718.34773592 -1718.34774257    -0.00000665  0.00103726  0.00144953  0.00048318  0.00522439  0.00998004  0.00576198     77.57
  10 -1718.34774257 -1718.34774277    -0.00000021  0.00012581  0.00020244  0.00006748  0.00102491  0.00141046  0.00081433     86.25

 END OF GEOMETRY OPTIMIZATION.

 Geometry written to block  1 of record 700

 Current geometry (xyz format, in Angstrom)

   19
 UHF-SCF000/CC-PVDZ  ENERGY=-1718.34774277
 Fe          0.0000000000        0.0000000000        0.0000000000
 O           2.1990043004        0.0000000000        0.0000000000
 H           2.7705340154        0.7614511094        0.0000000000
 H           2.7705340154       -0.7614511094        0.0000000000
 O          -2.1990043004        0.0000000000        0.0000000000
 H          -2.7705340154        0.7614511094        0.0000000000
 H          -2.7705340154       -0.7614511094        0.0000000000
 O           0.0000000000        2.1990043004        0.0000000000
 H           0.0000000000        2.7705340154        0.7614511094
 H           0.0000000000        2.7705340154       -0.7614511094
 O           0.0000000000       -2.1990043004        0.0000000000
 H           0.0000000000       -2.7705340154        0.7614511094
 H           0.0000000000       -2.7705340154       -0.7614511094
 O           0.0000000000        0.0000000000        2.1990043004
 H           0.7614511094        0.0000000000        2.7705340154
 H          -0.7614511094        0.0000000000        2.7705340154
 O           0.0000000000        0.0000000000       -2.1990043004
 H           0.7614511094        0.0000000000       -2.7705340154
 H          -0.7614511094        0.0000000000       -2.7705340154

 **********************************************************************************************************************************


 **********************************************************************************************************************************
 DATASETS  * FILE   NREC   LENGTH (MB)   RECORD NAMES
              1      18       30.62       500      610      700      900      950      970     1000      129      960     1100   
                                          VAR    BASINP    GEOM    SYMINP    ZMAT    AOBASIS   BASIS     P2S    ABASIS      S 
                                         1400     1410     1200     1210     1080     1600     1650     1700   
                                           T        V       H0       H01     AOSYM     SMH    MOLCAS    OPER   

              2       4        2.06       700     1000      520     2200   
                                         GEOM     BASIS   MCVARS     UHF  

 PROGRAMS   *        TOTAL      OPTG   UHF-SCF       INT
 CPU TIMES  *       107.31     86.28      4.73     15.46
 REAL TIME  *       119.38 SEC
 DISK USED  *        32.78 MB (local),        2.24 GB (total)
 SF USED    *         5.63 MB
 GA USED    *         0.01 MB       (max)       0.00 MB       (current)
 **********************************************************************************************************************************


 PROGRAM * HESSIAN

 Computing numerical hessian using default procedure for command UHF-SCF

 Symmetry elements for unique displacements: X  Y  Z  

 Using no symmetry in wavefunction calculations

 Running default procedure: UHF-SCF000


 Numerically approximating hessian using central gradient differences

 Task list generated. Total number of displacements:     30


 Switching to mppx mode, nproc= 19

 All  30 tasks completed.  CPU=    237.84 sec, Elapsed=    268.23 sec.

 Switching back to mpp mode, nproc= 19


 UHF-SCF hessian saved to record  5300.2

 PROGRAM * FREQUENCIES (Calculation of harmonic vibrational spectra for UHF-SCF)


 Permanent Dipole Moment [debye]
     1-   3    0.000000    0.000000    0.000000

 Dipole Moment Norm    0.0000000 [debye]

 Dipole Moment Derivatives [debye/ang]
              1             2             3             4             5             6             7             8
    1    8.22733874    0.00000000    0.00000000   -3.90595801    0.00000000    0.00000000    1.68935801    0.39386476
    2    0.00000000    8.80603396    0.00000000   -0.00000336   -3.27411044    0.00000000    0.13950390    1.92542023
    3    0.00000000    0.00000000    8.26366271    0.00000000    0.00000000   -3.21741506   -0.00000024    0.00000023
              9            10            11            12            13            14            15            16
    1    0.00000000    1.68935801   -0.39386476    0.00000000   -3.90595801    0.00000000    0.00000000    1.68935801
    2    0.00000000   -0.13950390    1.92542023    0.00000000    0.00000336   -3.27411044    0.00000000   -0.13950390
    3    1.87460571   -0.00000024   -0.00000023    1.87460571    0.00000000    0.00000000   -3.21741506    0.00000024
             17            18            19            20            21            22            23            24
    1   -0.39386476    0.00000000    1.68935801    0.39386476    0.00000000   -3.28663291   -0.00000171    0.00000000
    2    1.92542023    0.00000000    0.13950390    1.92542023    0.00000000    0.00000000   -4.06006801    0.00000000
    3    0.00000023    1.87460571    0.00000024   -0.00000023    1.87460571    0.00000000    0.00000211   -3.26419107
             25            26            27            28            29            30            31            32
    1    1.88565900    0.00000008    0.00000040    1.88565900    0.00000008   -0.00000040   -3.28663291    0.00000171
    2    0.00000000    1.72921267    0.42571264    0.00000000    1.72921267   -0.42571264    0.00000000   -4.06006801
    3    0.00000000    0.16575151    1.96196884    0.00000000   -0.16575151    1.96196884    0.00000000   -0.00000211
             33            34            35            36            37            38            39            40
    1    0.00000000    1.88565900   -0.00000008    0.00000040    1.88565900   -0.00000008   -0.00000040   -3.10471076
    2    0.00000000    0.00000000    1.72921267   -0.42571264    0.00000000    1.72921267    0.42571264    0.00000000
    3   -3.26419107    0.00000000   -0.16575151    1.96196884    0.00000000    0.16575151    1.96196884    0.00000000
             41            42            43            44            45            46            47            48
    1    0.00000000    0.00000000    1.92067521    0.00000000    0.15343946    1.92067521    0.00000000   -0.15343946
    2   -3.30598839    0.00000110   -0.00000062    1.86711746    0.00000033    0.00000062    1.86711746    0.00000033
    3    0.00000000   -3.88337692    0.39326237    0.00000000    1.68198809   -0.39326237    0.00000000    1.68198809
             49            50            51            52            53            54            55            56
    1   -3.10471076    0.00000000    0.00000000    1.92067521    0.00000000   -0.15343946    1.92067521    0.00000000
    2    0.00000000   -3.30598839   -0.00000110   -0.00000062    1.86711746   -0.00000033    0.00000062    1.86711746
    3    0.00000000    0.00000000   -3.88337692   -0.39326237    0.00000000    1.68198809    0.39326237    0.00000000
             57
    1    0.15343946
    2   -0.00000033
    3    1.68198809

 Projecting out rotations and translations

   Low Vibration      Wavenumber
        Nr             [1/cm] 
        1                0.00
        2                0.00
        3                0.00
        4                0.00
        5                0.00
        6                0.00
        7               32.50

     Vibration        Wavenumber
        Nr             [1/cm] 
        1               69.70
        2               70.92
        3               83.47
        4               86.10
        5               91.45
        6              115.09
        7              123.23
        8              130.33
        9              133.46
       10              147.60
       11              222.76
       12              224.55
       13              232.07
       14              241.02
       15              252.88
       16              310.36
       17              313.00
       18              319.32
       19              336.00
       20              374.54
       21              376.76
       22              401.05
       23              401.82
       24              419.36
       25              428.87
       26              445.55
       27              540.84
       28              549.88
       29              553.02
       30              556.63
       31              562.21
       32              567.76
       33             1787.54
       34             1788.06
       35             1788.47
       36             1789.19
       37             1789.56
       38             1793.36
       39             4044.96
       40             4045.66
       41             4046.09
       42             4046.78
       43             4047.76
       44             4056.63
       45             4128.08
       46             4128.14
       47             4128.69
       48             4128.76
       49             4128.77
       50             4129.34

 FREQUENCIES * CALCULATION OF NORMAL MODES FOR UHF-SCF


 Atomic Coordinates

  Nr  Atom  Charge       X              Y              Z

   1   FE   26.00    0.000000000    0.000000000    0.000000000
   2   O     8.00    4.155515875    0.000000000    0.000000000
   3   H     1.00    5.235550508    1.438934054    0.000000000
   4   H     1.00    5.235550508   -1.438934054    0.000000000
   5   O     8.00   -4.155515875    0.000000000    0.000000000
   6   H     1.00   -5.235550508    1.438934054    0.000000000
   7   H     1.00   -5.235550508   -1.438934054    0.000000000
   8   O     8.00    0.000000000    4.155515875    0.000000000
   9   H     1.00    0.000000000    5.235550508    1.438934054
  10   H     1.00    0.000000000    5.235550508   -1.438934054
  11   O     8.00    0.000000000   -4.155515875    0.000000000
  12   H     1.00    0.000000000   -5.235550508    1.438934054
  13   H     1.00    0.000000000   -5.235550508   -1.438934054
  14   O     8.00    0.000000000    0.000000000    4.155515875
  15   H     1.00    1.438934054    0.000000000    5.235550508
  16   H     1.00   -1.438934054    0.000000000    5.235550508
  17   O     8.00    0.000000000    0.000000000   -4.155515875
  18   H     1.00    1.438934054    0.000000000   -5.235550508
  19   H     1.00   -1.438934054    0.000000000   -5.235550508

 Gradient norm at reference geometry: 0.98717D-02


 ? Warning
 ? Gradient norm not zero
 ? The problem occurs in freq

 Normal Modes

                              1 Err       2 Err       3 Err       4 B2g       5 Err
 Wavenumbers [cm-1]           69.70       70.92       83.47       86.10       91.45
 Intensities [km/mol]          0.01        2.19        4.52        0.00        3.22
 Intensities [relative]        0.00        0.42        0.87        0.00        0.62
           FEX1             0.00001    -0.00000    -0.00000     0.00000    -0.00324
           FEY1            -0.00100    -0.01574    -0.00000     0.00000    -0.00000
           FEZ1             0.00000     0.00000     0.00540     0.00000     0.00000
           OX2              0.00000    -0.00000     0.00000     0.00000    -0.00858
           OY2              0.11502     0.11551     0.00000     0.00000    -0.00034
           OZ2             -0.00000    -0.00000     0.11599     0.12496     0.00000
           HX3             -0.06846    -0.05819    -0.00000     0.00000    -0.00942
           HY3              0.16650     0.15915     0.00000    -0.00000    -0.00009
           HZ3              0.00007     0.00097     0.11167     0.06212     0.00000
           HX4              0.06847     0.05819     0.00000     0.00000    -0.00990
           HY4              0.16650     0.15915     0.00000     0.00000    -0.00096
           HZ4             -0.00007    -0.00098     0.11055     0.06212     0.00000
           OX5              0.00000    -0.00000    -0.00000     0.00000    -0.00858
           OY5             -0.09868     0.12983     0.00000    -0.00000     0.00035
           OZ5             -0.00000    -0.00000     0.11599    -0.12495    -0.00000
           HX6             -0.06021     0.06688     0.00000     0.00000    -0.00941
           HY6             -0.14397     0.18002     0.00000     0.00000     0.00009
           HZ6              0.00007     0.00097     0.11167    -0.06212    -0.00000
           HX7              0.06021    -0.06688    -0.00000     0.00000    -0.00990
           HY7             -0.14397     0.18002     0.00000    -0.00000     0.00097
           HZ7             -0.00007    -0.00098     0.11055    -0.06212    -0.00000
           OX8              0.11300    -0.00760    -0.00000    -0.00000     0.12217
           OY8             -0.00011    -0.00253     0.00000     0.00000    -0.00000
           OZ8             -0.00002    -0.00031    -0.11249    -0.00000    -0.00000
           HX9              0.10065    -0.00672     0.00000     0.01427     0.12898
           HY9             -0.00003    -0.00138     0.05964     0.00000    -0.00000
           HZ9             -0.00007    -0.00105    -0.15718    -0.00000    -0.00000
           HX10             0.10065    -0.00672    -0.00000    -0.01427     0.12898
           HY10            -0.00007    -0.00187    -0.05964    -0.00000    -0.00000
           HZ10             0.00000     0.00006    -0.15718    -0.00000     0.00000
           OX11            -0.11229     0.00755     0.00000    -0.00000     0.12293
           OY11            -0.00011    -0.00253    -0.00000     0.00000    -0.00000
           OZ11             0.00002     0.00031    -0.11201    -0.00000     0.00000
           HX12            -0.09988     0.00666     0.00000     0.01427     0.12956
           HY12            -0.00003    -0.00138    -0.05924    -0.00000    -0.00000
           HZ12             0.00007     0.00105    -0.15641    -0.00000     0.00000
           HX13            -0.09988     0.00666    -0.00000    -0.01427     0.12956
           HY13            -0.00007    -0.00187     0.05924     0.00000    -0.00000
           HZ13            -0.00000    -0.00006    -0.15641    -0.00000     0.00000
           OX14            -0.00037     0.00003    -0.00000     0.10483    -0.10523
           OY14            -0.00687    -0.10104    -0.00025    -0.00000    -0.00000
           OZ14             0.00000     0.00000    -0.00645    -0.00000    -0.00000
           HX15            -0.00051     0.00004     0.00067     0.16354    -0.14399
           HY15            -0.13864    -0.09565    -0.00025    -0.00000     0.00020
           HZ15             0.00019    -0.00001    -0.00762    -0.07798     0.05166
           HX16            -0.00051     0.00004    -0.00067     0.16354    -0.14399
           HY16             0.12451    -0.11286    -0.00025     0.00000    -0.00020
           HZ16            -0.00019     0.00001    -0.00762     0.07798    -0.05166
           OX17            -0.00037     0.00003     0.00000    -0.10483    -0.10523
           OY17            -0.00682    -0.10044     0.00024     0.00000    -0.00000
           OZ17            -0.00000     0.00000    -0.00645    -0.00000     0.00000
           HX18            -0.00051     0.00004    -0.00067    -0.16354    -0.14399
           HY18            -0.13859    -0.09495     0.00025     0.00000     0.00020
           HZ18            -0.00019     0.00001    -0.00762    -0.07798    -0.05166
           HX19            -0.00051     0.00004     0.00067    -0.16354    -0.14399
           HY19             0.12456    -0.11216     0.00025    -0.00000    -0.00020
           HZ19             0.00019    -0.00001    -0.00762     0.07798     0.05166

                              6 B2u       7 Err       8 B3g       9 B3u      10 Au 
 Wavenumbers [cm-1]          115.09      123.23      130.33      133.46      147.60
 Intensities [km/mol]          0.05        0.12        0.00        0.39        0.00
 Intensities [relative]        0.01        0.02        0.00        0.07        0.00
           FEX1            -0.00000    -0.00000    -0.00000     0.06947     0.00000
           FEY1             0.07193    -0.00000     0.00004    -0.00000     0.00000
           FEZ1             0.00000     0.07112     0.00016     0.00000    -0.00000
           OX2             -0.00000    -0.00000    -0.00000     0.06369     0.00000
           OY2             -0.05793     0.00000    -0.00010    -0.00004    -0.00000
           OZ2             -0.00000    -0.09356    -0.00030    -0.00000     0.00000
           HX3              0.07028    -0.00000     0.00008     0.06502     0.00000
           HY3             -0.11062     0.00000    -0.00016    -0.00059    -0.00000
           HZ3              0.00006    -0.07053    -0.33424    -0.00000     0.39471
           HX4             -0.07028     0.00000    -0.00008     0.06493     0.00000
           HY4             -0.11062     0.00000    -0.00016     0.00043    -0.00000
           HZ4             -0.00006    -0.07167     0.33372     0.00000    -0.39471
           OX5              0.00000     0.00000     0.00000     0.06369     0.00000
           OY5             -0.05773     0.00000    -0.00010     0.00004     0.00000
           OZ5             -0.00000    -0.09356    -0.00030     0.00000    -0.00000
           HX6             -0.07011     0.00000    -0.00008     0.06502     0.00000
           HY6             -0.11030     0.00000    -0.00016     0.00059     0.00000
           HZ6              0.00006    -0.07053    -0.33424     0.00000    -0.39471
           HX7              0.07011    -0.00000     0.00008     0.06493     0.00000
           HY7             -0.11030     0.00000    -0.00016    -0.00043     0.00000
           HZ7             -0.00006    -0.07167     0.33372    -0.00000     0.39471
           OX8             -0.00012    -0.00000     0.00000    -0.08133    -0.00000
           OY8              0.05875     0.00000     0.00002    -0.00000     0.00000
           OZ8              0.00004    -0.07331    -0.07003    -0.00000     0.00000
           HX9             -0.00006     0.00000    -0.00000    -0.07231    -0.30200
           HY9              0.06008     0.08648     0.05372    -0.00000    -0.00000
           HZ9             -0.00028    -0.13812    -0.11033     0.00000     0.00000
           HX10            -0.00006    -0.00000     0.00000    -0.07231     0.30200
           HY10             0.06015    -0.08648    -0.05368    -0.00000     0.00000
           HZ10             0.00042    -0.13812    -0.11033    -0.00000     0.00000
           OX11             0.00012     0.00000    -0.00000    -0.08121    -0.00000
           OY11             0.05875    -0.00000     0.00002     0.00000     0.00000
           OZ11            -0.00004    -0.07369     0.06989     0.00000    -0.00000
           HX12             0.00006     0.00000     0.00000    -0.07227     0.30200
           HY12             0.06008    -0.08679     0.05343     0.00000    -0.00000
           HZ12             0.00028    -0.13873     0.10997     0.00000    -0.00000
           HX13             0.00006    -0.00000    -0.00000    -0.07226    -0.30200
           HY13             0.06015     0.08679    -0.05339     0.00000     0.00000
           HZ13            -0.00042    -0.13873     0.10997    -0.00000    -0.00000
           OX14            -0.00000     0.00000     0.00000    -0.08351    -0.00000
           OY14            -0.10643     0.00026    -0.10187     0.00000     0.00000
           OZ14             0.00000     0.06142     0.00014     0.00000     0.00000
           HX15            -0.00000    -0.00062    -0.00000    -0.15258    -0.00000
           HY15            -0.10818     0.00008    -0.01546    -0.00008    -0.03209
           HZ15             0.00000     0.06287     0.00014     0.09214     0.00000
           HX16            -0.00000     0.00062     0.00000    -0.15258    -0.00000
           HY16            -0.10808     0.00008    -0.01546     0.00008     0.03209
           HZ16             0.00000     0.06287     0.00014    -0.09214    -0.00000
           OX17            -0.00000    -0.00000     0.00000    -0.08351    -0.00000
           OY17            -0.10654    -0.00026     0.10192     0.00000    -0.00000
           OZ17            -0.00000     0.06142     0.00014    -0.00000     0.00000
           HX18            -0.00000     0.00062     0.00000    -0.15258    -0.00000
           HY18            -0.10824    -0.00008     0.01551    -0.00008     0.03209
           HZ18            -0.00000     0.06287     0.00014    -0.09214    -0.00000
           HX19            -0.00000    -0.00062    -0.00000    -0.15258    -0.00000
           HY19            -0.10814    -0.00008     0.01551     0.00008    -0.03209
           HZ19            -0.00000     0.06287     0.00014     0.09214     0.00000

                             11 Au       12 B1g      13 B2g      14 Ag       15 Ag 
 Wavenumbers [cm-1]          222.76      224.55      232.07      241.02      252.88
 Intensities [km/mol]          0.00        0.00        0.00        0.00        0.00
 Intensities [relative]        0.00        0.00        0.00        0.00        0.00
           FEX1             0.00000    -0.00003     0.00000     0.00000     0.00000
           FEY1            -0.00000    -0.00003    -0.00000     0.00000    -0.00000
           FEZ1             0.00000     0.00000    -0.00000     0.00000    -0.00000
           OX2             -0.00000     0.00001     0.00000    -0.00777     0.12307
           OY2             -0.00000    -0.01441    -0.00000     0.00000    -0.00000
           OZ2              0.00000    -0.00000     0.01931     0.00000    -0.00000
           HX3              0.00000     0.03100     0.00000    -0.00768     0.12666
           HY3             -0.00000    -0.03781    -0.00000    -0.00030    -0.00285
           HZ3             -0.21429     0.00000    -0.11506     0.00000    -0.00000
           HX4             -0.00000    -0.03099     0.00000    -0.00768     0.12666
           HY4             -0.00000    -0.03781     0.00000     0.00030     0.00285
           HZ4              0.21428    -0.00000    -0.11506    -0.00000     0.00000
           OX5             -0.00000     0.00001     0.00000     0.00777    -0.12307
           OY5              0.00000     0.01433     0.00000    -0.00000    -0.00000
           OZ5             -0.00000     0.00000    -0.01931     0.00000    -0.00000
           HX6              0.00000     0.03100     0.00000     0.00768    -0.12666
           HY6              0.00000     0.03774     0.00000    -0.00030    -0.00285
           HZ6              0.21428    -0.00000     0.11506     0.00000    -0.00000
           HX7             -0.00000    -0.03098     0.00000     0.00768    -0.12666
           HY7              0.00000     0.03773    -0.00000     0.00030     0.00285
           HZ7             -0.21428     0.00000     0.11506    -0.00000     0.00000
           OX8             -0.00000    -0.05467    -0.00000     0.00000    -0.00000
           OY8              0.00000     0.00000     0.00000    -0.10925    -0.08759
           OZ8              0.00000     0.00000     0.00000    -0.00000    -0.00000
           HX9             -0.31422     0.08024     0.47790    -0.00000     0.00000
           HY9              0.00000     0.00000    -0.00000    -0.11254    -0.08963
           HZ9              0.00000    -0.00000     0.00000     0.00286     0.00147
           HX10             0.31422     0.08023    -0.47791    -0.00000     0.00000
           HY10            -0.00000     0.00000     0.00000    -0.11254    -0.08963
           HZ10             0.00000     0.00000     0.00000    -0.00286    -0.00147
           OX11             0.00000     0.05460    -0.00000    -0.00000     0.00000
           OY11             0.00000     0.00001    -0.00000     0.10925     0.08759
           OZ11             0.00000    -0.00000     0.00000    -0.00000    -0.00000
           HX12             0.31423    -0.08031     0.47790     0.00000    -0.00000
           HY12             0.00000     0.00001     0.00000     0.11254     0.08963
           HZ12             0.00000     0.00000     0.00000     0.00286     0.00147
           HX13            -0.31423    -0.08030    -0.47790     0.00000    -0.00000
           HY13            -0.00000     0.00001    -0.00000     0.11254     0.08963
           HZ13             0.00000    -0.00000     0.00000    -0.00286    -0.00147
           OX14             0.00000     0.00007    -0.01293     0.00000     0.00000
           OY14             0.00000     0.00008    -0.00000     0.00000    -0.00000
           OZ14            -0.00000     0.00000     0.00000     0.12482    -0.06900
           HX15             0.00000     0.00013    -0.03516    -0.00255     0.00180
           HY15             0.32152    -0.46233    -0.00000     0.00001    -0.00000
           HZ15            -0.00000    -0.00007     0.02959     0.12814    -0.07113
           HX16             0.00000     0.00013    -0.03516     0.00255    -0.00180
           HY16            -0.32152     0.46260     0.00000    -0.00001     0.00000
           HZ16            -0.00000     0.00008    -0.02959     0.12814    -0.07113
           OX17            -0.00000     0.00007     0.01293     0.00000     0.00000
           OY17            -0.00000     0.00008     0.00000     0.00000     0.00000
           OZ17            -0.00000    -0.00000     0.00000    -0.12482     0.06900
           HX18             0.00000     0.00013     0.03516    -0.00255     0.00180
           HY18            -0.32153    -0.46232     0.00000     0.00001    -0.00000
           HZ18            -0.00000     0.00007     0.02959    -0.12814     0.07113
           HX19             0.00000     0.00013     0.03516     0.00255    -0.00180
           HY19             0.32153     0.46259    -0.00000    -0.00001     0.00000
           HZ19            -0.00000    -0.00008    -0.02959    -0.12814     0.07113

                             16 B1u      17 B2u      18 Ag       19 B3u      20 Au 
 Wavenumbers [cm-1]          310.36      313.00      319.32      336.00      374.54
 Intensities [km/mol]          8.09        0.47        0.00        8.96        0.00
 Intensities [relative]        1.55        0.09        0.00        1.72        0.00
           FEX1            -0.00000    -0.00000    -0.00000     0.07733     0.00000
           FEY1            -0.00000     0.07545    -0.00000     0.00000     0.00000
           FEZ1             0.07663     0.00000     0.00000     0.00000    -0.00000
           OX2             -0.00000     0.00000     0.11137    -0.12709    -0.00000
           OY2             -0.00000     0.01733    -0.00000     0.00000    -0.00000
           OZ2              0.01214     0.00000    -0.00000     0.00000    -0.00000
           HX3             -0.00000     0.03134     0.11305    -0.13287    -0.00000
           HY3              0.00000    -0.00615    -0.00078     0.00462    -0.00000
           HZ3             -0.12635     0.00004    -0.00000    -0.00000     0.21523
           HX4             -0.00000    -0.03134     0.11305    -0.13284    -0.00000
           HY4              0.00000    -0.00615     0.00078    -0.00459    -0.00000
           HZ4             -0.12643    -0.00004     0.00000    -0.00000    -0.21520
           OX5              0.00000    -0.00000    -0.11137    -0.12709    -0.00000
           OY5             -0.00000     0.01733    -0.00000    -0.00000     0.00000
           OZ5              0.01214     0.00000    -0.00000    -0.00000     0.00000
           HX6              0.00000    -0.03137    -0.11305    -0.13287    -0.00000
           HY6              0.00000    -0.00617    -0.00078    -0.00462     0.00000
           HZ6             -0.12635     0.00004    -0.00000     0.00000    -0.21523
           HX7              0.00000     0.03137    -0.11305    -0.13284    -0.00000
           HY7              0.00000    -0.00617     0.00078     0.00459     0.00000
           HZ7             -0.12642    -0.00004     0.00000     0.00000     0.21521
           OX8             -0.00000    -0.00001     0.00000     0.01430     0.00000
           OY8             -0.00000    -0.13167     0.08944     0.00000    -0.00000
           OZ8              0.01531     0.00000     0.00000     0.00000    -0.00000
           HX9              0.00000     0.00002    -0.00000    -0.11925     0.24101
           HY9              0.03196    -0.13721     0.09067     0.00000    -0.00000
           HZ9             -0.00854     0.00481    -0.00058    -0.00000     0.00000
           HX10            -0.00000     0.00002    -0.00000    -0.11925    -0.24102
           HY10            -0.03196    -0.13723     0.09067     0.00000     0.00000
           HZ10            -0.00854    -0.00483     0.00058     0.00000     0.00000
           OX11            -0.00000     0.00001    -0.00000     0.01431     0.00000
           OY11             0.00000    -0.13167    -0.08944    -0.00000    -0.00000
           OZ11             0.01531    -0.00000     0.00000     0.00000     0.00000
           HX12            -0.00000    -0.00002     0.00000    -0.11929    -0.24101
           HY12            -0.03193    -0.13721    -0.09067    -0.00000    -0.00000
           HZ12            -0.00852    -0.00481    -0.00058    -0.00000    -0.00000
           HX13             0.00000    -0.00002     0.00000    -0.11929     0.24101
           HY13             0.03193    -0.13723    -0.09067    -0.00000     0.00000
           HZ13            -0.00852     0.00483     0.00058     0.00000    -0.00000
           OX14            -0.00000     0.00000    -0.00000     0.01216     0.00000
           OY14             0.00000     0.01210     0.00000     0.00000     0.00000
           OZ14            -0.12740    -0.00000     0.08524     0.00000     0.00000
           HX15             0.00483     0.00000    -0.00030    -0.02039    -0.00000
           HY15            -0.00000    -0.09044     0.00000    -0.00008     0.37898
           HZ15            -0.13325    -0.00000     0.08619     0.04357     0.00001
           HX16            -0.00483     0.00000     0.00030    -0.02039    -0.00000
           HY16            -0.00000    -0.09024    -0.00000     0.00008    -0.37898
           HZ16            -0.13325    -0.00000     0.08620    -0.04357    -0.00000
           OX17             0.00000     0.00000    -0.00000     0.01216    -0.00000
           OY17            -0.00000     0.01210     0.00000     0.00000    -0.00000
           OZ17            -0.12740     0.00000    -0.08524    -0.00000     0.00000
           HX18            -0.00483     0.00000    -0.00030    -0.02039     0.00000
           HY18             0.00000    -0.09043     0.00000    -0.00008    -0.37898
           HZ18            -0.13325     0.00000    -0.08620    -0.04357     0.00001
           HX19             0.00483     0.00000     0.00030    -0.02039     0.00000
           HY19             0.00000    -0.09023    -0.00000     0.00008     0.37898
           HZ19            -0.13325     0.00000    -0.08620     0.04357    -0.00000

                             21 B2g      22 B1g      23 B1u      24 B3g      25 B3u
 Wavenumbers [cm-1]          376.76      401.05      401.82      419.36      428.87
 Intensities [km/mol]          0.00        0.00      471.63        0.00      451.20
 Intensities [relative]        0.00        0.00       90.42        0.00       86.50
           FEX1             0.00000     0.00000    -0.00000     0.00000     0.01163
           FEY1             0.00000     0.00000    -0.00000    -0.00000     0.00000
           FEZ1             0.00000     0.00000     0.01187     0.00000    -0.00000
           OX2             -0.00000    -0.00000    -0.00000    -0.00000    -0.03342
           OY2             -0.00000     0.04089    -0.00000    -0.00000    -0.00000
           OZ2             -0.04021    -0.00000    -0.05065    -0.00001    -0.00000
           HX3             -0.00000     0.16767    -0.00000     0.00001    -0.02842
           HY3              0.00000    -0.08639     0.00000    -0.00001    -0.00422
           HZ3              0.43113     0.00000     0.44454     0.06951     0.00000
           HX4             -0.00000    -0.16768    -0.00000    -0.00001    -0.02839
           HY4             -0.00000    -0.08639    -0.00000    -0.00001     0.00424
           HZ4              0.43115    -0.00000     0.44458    -0.06945    -0.00000
           OX5             -0.00000    -0.00000     0.00000     0.00000    -0.03342
           OY5              0.00000    -0.04089    -0.00000    -0.00000     0.00000
           OZ5              0.04021    -0.00000    -0.05065    -0.00001     0.00000
           HX6             -0.00000     0.16767     0.00000    -0.00001    -0.02842
           HY6             -0.00000     0.08638     0.00000    -0.00001     0.00422
           HZ6             -0.43113    -0.00000     0.44454     0.06951    -0.00000
           HX7             -0.00000    -0.16767     0.00000     0.00001    -0.02839
           HY7              0.00000     0.08638    -0.00000    -0.00001    -0.00424
           HZ7             -0.43115     0.00000     0.44458    -0.06945     0.00000
           OX8              0.00000    -0.04080     0.00000     0.00000    -0.05473
           OY8              0.00000    -0.00000    -0.00000     0.00000    -0.00000
           OZ8             -0.00000     0.00000     0.02200     0.04279     0.00000
           HX9              0.11171     0.41466    -0.00000     0.00000     0.43770
           HY9             -0.00000    -0.00000     0.09674     0.17369    -0.00000
           HZ9              0.00000    -0.00000    -0.05122    -0.08881     0.00000
           HX10            -0.11171     0.41466     0.00000    -0.00000     0.43770
           HY10             0.00000    -0.00000    -0.09674    -0.17368    -0.00000
           HZ10             0.00000     0.00000    -0.05122    -0.08881    -0.00000
           OX11             0.00000     0.04080    -0.00000    -0.00000    -0.05473
           OY11            -0.00000    -0.00000     0.00000     0.00000    -0.00000
           OZ11            -0.00000    -0.00000     0.02201    -0.04278    -0.00000
           HX12             0.11172    -0.41468     0.00000    -0.00000     0.43765
           HY12             0.00000    -0.00000    -0.09678     0.17367     0.00000
           HZ12             0.00000     0.00000    -0.05125     0.08881     0.00000
           HX13            -0.11172    -0.41468    -0.00000     0.00000     0.43765
           HY13            -0.00000    -0.00000     0.09678    -0.17367     0.00000
           HZ13             0.00000    -0.00000    -0.05125     0.08881    -0.00000
           OX14             0.04005     0.00000     0.00000     0.00000     0.02401
           OY14            -0.00000     0.00000     0.00000    -0.04251    -0.00000
           OZ14             0.00000     0.00000    -0.03751    -0.00000    -0.00000
           HX15            -0.06655     0.00000    -0.00402    -0.00000    -0.06141
           HY15            -0.00001     0.11845    -0.00002     0.41987    -0.00002
           HZ15             0.14029    -0.00000    -0.03272     0.00000     0.11309
           HX16            -0.06655     0.00000     0.00402     0.00000    -0.06141
           HY16             0.00001    -0.11843    -0.00002     0.41987     0.00002
           HZ16            -0.14029     0.00000    -0.03272     0.00000    -0.11309
           OX17            -0.04005     0.00000    -0.00000    -0.00000     0.02401
           OY17             0.00000     0.00000    -0.00000     0.04251    -0.00000
           OZ17             0.00000    -0.00000    -0.03751    -0.00000     0.00000
           HX18             0.06655     0.00000     0.00402     0.00000    -0.06141
           HY18             0.00001     0.11845     0.00002    -0.41984    -0.00002
           HZ18             0.14029     0.00000    -0.03272     0.00000    -0.11309
           HX19             0.06655     0.00000    -0.00402    -0.00000    -0.06141
           HY19            -0.00001    -0.11843     0.00002    -0.41984     0.00002
           HZ19            -0.14029    -0.00000    -0.03272     0.00000     0.11309

                             26 B2u      27 B1g      28 B2g      29 B3g      30 B2u
 Wavenumbers [cm-1]          445.55      540.84      549.88      553.02      556.63
 Intensities [km/mol]        380.93        0.00        0.00        0.00      490.74
 Intensities [relative]       73.03        0.00        0.00        0.00       94.08
           FEX1            -0.00000    -0.00001    -0.00000     0.00000     0.00000
           FEY1             0.00679    -0.00000    -0.00000    -0.00003    -0.02538
           FEZ1             0.00000    -0.00000    -0.00000    -0.00000     0.00000
           OX2              0.00000     0.00001     0.00000     0.00000     0.00000
           OY2              0.02553    -0.05209    -0.00000     0.00006     0.05836
           OZ2              0.00000    -0.00000     0.02808    -0.00001     0.00000
           HX3              0.14014    -0.36128     0.00000     0.00042     0.36885
           HY3             -0.08027     0.21833     0.00000    -0.00025    -0.21772
           HZ3              0.00001    -0.00000    -0.15696    -0.03841     0.00005
           HX4             -0.14014     0.36130     0.00000    -0.00042    -0.36885
           HY4             -0.08027     0.21833    -0.00000    -0.00025    -0.21772
           HZ4             -0.00001     0.00000    -0.15696     0.03843    -0.00005
           OX5             -0.00000     0.00001     0.00000    -0.00000    -0.00000
           OY5              0.02553     0.05212     0.00000     0.00006     0.05835
           OZ5              0.00000     0.00000    -0.02808    -0.00001     0.00000
           HX6             -0.14008    -0.36137     0.00000    -0.00042    -0.36878
           HY6             -0.08024    -0.21837    -0.00000    -0.00025    -0.21768
           HZ6              0.00001     0.00000     0.15696    -0.03841     0.00005
           HX7              0.14008     0.36139     0.00000     0.00042     0.36878
           HY7             -0.08024    -0.21837     0.00000    -0.00025    -0.21768
           HZ7             -0.00001    -0.00000     0.15696     0.03843    -0.00005
           OX8              0.00000    -0.03155    -0.00000     0.00000     0.00000
           OY8             -0.02499     0.00001     0.00000     0.00002     0.00920
           OZ8             -0.00000     0.00000     0.00000     0.05414    -0.00006
           HX9             -0.00003     0.19777    -0.07357     0.00000    -0.00002
           HY9             -0.01988     0.00001     0.00000     0.35712     0.00626
           HZ9             -0.00442    -0.00000    -0.00000    -0.21263     0.00058
           HX10            -0.00003     0.19777     0.07357    -0.00000    -0.00002
           HY10            -0.01989     0.00001    -0.00000    -0.35710     0.00708
           HZ10             0.00441     0.00000    -0.00000    -0.21263    -0.00010
           OX11            -0.00000     0.03158    -0.00000    -0.00000    -0.00000
           OY11            -0.02499     0.00001    -0.00000     0.00002     0.00920
           OZ11             0.00000    -0.00000     0.00000    -0.05413     0.00006
           HX12             0.00003    -0.19785    -0.07357    -0.00000     0.00002
           HY12            -0.01988     0.00001    -0.00000     0.35710     0.00626
           HZ12             0.00442     0.00000    -0.00000     0.21262    -0.00058
           HX13             0.00003    -0.19785     0.07357     0.00000     0.00002
           HY13            -0.01989     0.00001     0.00000    -0.35708     0.00708
           HZ13            -0.00441    -0.00000    -0.00000     0.21262     0.00010
           OX14            -0.00000     0.00001     0.05740    -0.00000    -0.00000
           OY14            -0.05432    -0.00001     0.00000     0.03520     0.02274
           OZ14             0.00000     0.00000     0.00000     0.00000    -0.00000
           HX15            -0.00000    -0.00007    -0.21959    -0.00000     0.00000
           HY15             0.43285     0.03474    -0.00000    -0.20204    -0.15412
           HZ15             0.00000     0.00010     0.37061     0.00000    -0.00000
           HX16             0.00000    -0.00007    -0.21959     0.00000     0.00000
           HY16             0.43280    -0.03471     0.00000    -0.20204    -0.15411
           HZ16             0.00000    -0.00010    -0.37061     0.00000    -0.00000
           OX17            -0.00000     0.00001    -0.05740     0.00000    -0.00000
           OY17            -0.05433    -0.00001    -0.00000    -0.03514     0.02281
           OZ17            -0.00000    -0.00000     0.00000     0.00000     0.00000
           HX18            -0.00000    -0.00007     0.21959     0.00000     0.00000
           HY18             0.43289     0.03474     0.00000     0.20168    -0.15457
           HZ18            -0.00000    -0.00010     0.37061     0.00000     0.00000
           HX19             0.00000    -0.00007     0.21959    -0.00000     0.00000
           HY19             0.43283    -0.03471    -0.00000     0.20168    -0.15456
           HZ19            -0.00000     0.00010    -0.37061     0.00000    -0.00000

                             31 B1u      32 B3u      33 B2u      34 Ag       35 B3u
 Wavenumbers [cm-1]          562.21      567.76     1787.54     1788.06     1788.47
 Intensities [km/mol]        382.95      407.19      252.27        0.00      244.53
 Intensities [relative]       73.42       78.07       48.37        0.00       46.88
           FEX1            -0.00000    -0.02923    -0.00000     0.00000     0.00069
           FEY1            -0.00000    -0.00000     0.00073     0.00000     0.00000
           FEZ1            -0.02656     0.00000    -0.00000    -0.00000     0.00000
           OX2              0.00000     0.01052     0.00000     0.02486    -0.04920
           OY2              0.00000     0.00001     0.00007    -0.00000     0.00000
           OZ2              0.01513     0.00000     0.00000     0.00000     0.00000
           HX3              0.00000     0.00876     0.00006    -0.18959     0.37654
           HY3             -0.00000    -0.00011    -0.00016     0.14831    -0.29489
           HZ3             -0.10427    -0.00000     0.00000     0.00000    -0.00000
           HX4              0.00000     0.00857    -0.00006    -0.18959     0.37654
           HY4             -0.00000     0.00000    -0.00016    -0.14831     0.29489
           HZ4             -0.10428     0.00000    -0.00000     0.00000    -0.00000
           OX5             -0.00000     0.01052    -0.00000    -0.02486    -0.04920
           OY5              0.00000    -0.00001     0.00007    -0.00000    -0.00000
           OZ5              0.01513    -0.00000     0.00000     0.00000    -0.00000
           HX6             -0.00000     0.00876    -0.00006     0.18959     0.37654
           HY6             -0.00000     0.00011    -0.00016     0.14831     0.29489
           HZ6             -0.10428     0.00000     0.00000     0.00000     0.00000
           HX7             -0.00000     0.00857     0.00006     0.18959     0.37654
           HY7             -0.00000    -0.00000    -0.00016    -0.14831    -0.29489
           HZ7             -0.10428    -0.00000    -0.00000     0.00000     0.00000
           OX8              0.00000     0.01804    -0.00000    -0.00000     0.00142
           OY8             -0.00000     0.00000    -0.04929    -0.04205     0.00000
           OZ8              0.06397    -0.00000    -0.00000    -0.00000     0.00000
           HX9              0.00000    -0.11903     0.00000     0.00000    -0.00711
           HY9              0.37979     0.00000     0.37637     0.31906    -0.00000
           HZ9             -0.21993    -0.00000    -0.29499    -0.24962     0.00000
           HX10            -0.00000    -0.11903     0.00000     0.00000    -0.00711
           HY10            -0.37979     0.00000     0.37637     0.31906    -0.00000
           HZ10            -0.21993     0.00000     0.29499     0.24962    -0.00000
           OX11             0.00000     0.01803     0.00000    -0.00000     0.00142
           OY11             0.00000    -0.00000    -0.04929     0.04205    -0.00000
           OZ11             0.06398    -0.00000     0.00000    -0.00000     0.00000
           HX12             0.00000    -0.11894    -0.00000     0.00000    -0.00711
           HY12            -0.37981    -0.00000     0.37637    -0.31906     0.00000
           HZ12            -0.21994    -0.00000     0.29499    -0.24962     0.00000
           HX13            -0.00000    -0.11894    -0.00000     0.00000    -0.00711
           HY13             0.37981    -0.00000     0.37637    -0.31906     0.00000
           HZ13            -0.21994     0.00000    -0.29499     0.24962    -0.00000
           OX14            -0.00000     0.06356     0.00000    -0.00000     0.00005
           OY14            -0.00000     0.00000     0.00145    -0.00000     0.00000
           OZ14             0.00739     0.00000    -0.00000     0.00862    -0.00000
           HX15            -0.00023    -0.21593    -0.00000     0.04915    -0.00014
           HY15             0.00000    -0.00003    -0.00710     0.00000    -0.00000
           HZ15             0.00564     0.37393     0.00000    -0.06351     0.00002
           HX16             0.00023    -0.21593     0.00000    -0.04915    -0.00014
           HY16             0.00000     0.00003    -0.00710    -0.00000     0.00000
           HZ16             0.00564    -0.37393     0.00000    -0.06351    -0.00002
           OX17             0.00000     0.06356     0.00000    -0.00000     0.00005
           OY17             0.00000     0.00000     0.00145    -0.00000     0.00000
           OZ17             0.00739    -0.00000     0.00000    -0.00862     0.00000
           HX18             0.00023    -0.21593    -0.00000     0.04915    -0.00014
           HY18            -0.00000    -0.00003    -0.00710     0.00000    -0.00000
           HZ18             0.00564    -0.37393    -0.00000     0.06351    -0.00002
           HX19            -0.00023    -0.21593     0.00000    -0.04915    -0.00014
           HY19            -0.00000     0.00003    -0.00710    -0.00000     0.00000
           HZ19             0.00564     0.37393    -0.00000     0.06351     0.00002

                             36 Ag       37 B1u      38 Ag       39 Ag       40 Ag 
 Wavenumbers [cm-1]         1789.19     1789.56     1793.36     4044.96     4045.66
 Intensities [km/mol]          0.00      242.50        0.00        0.00        0.00
 Intensities [relative]        0.00       46.49        0.00        0.00        0.00
           FEX1            -0.00000     0.00000     0.00000     0.00000    -0.00000
           FEY1            -0.00000     0.00000    -0.00000    -0.00000    -0.00000
           FEZ1            -0.00000     0.00072     0.00000     0.00000     0.00000
           OX2              0.03342    -0.00000    -0.02603    -0.02904     0.00558
           OY2             -0.00000     0.00000     0.00000    -0.00000    -0.00000
           OZ2              0.00000     0.00140    -0.00000     0.00000    -0.00000
           HX3             -0.25372     0.00000     0.20380     0.23120    -0.04385
           HY3              0.19825    -0.00000    -0.16040     0.33439    -0.06410
           HZ3             -0.00000    -0.00698    -0.00000    -0.00000     0.00000
           HX4             -0.25372     0.00000     0.20380     0.23120    -0.04385
           HY4             -0.19825     0.00000     0.16040    -0.33439     0.06410
           HZ4              0.00000    -0.00698    -0.00000    -0.00000     0.00000
           OX5             -0.03342     0.00000     0.02603     0.02904    -0.00558
           OY5             -0.00000     0.00000     0.00000    -0.00000    -0.00000
           OZ5              0.00000     0.00140    -0.00000     0.00000    -0.00000
           HX6              0.25372    -0.00000    -0.20380    -0.23120     0.04385
           HY6              0.19825    -0.00000    -0.16040     0.33439    -0.06410
           HZ6             -0.00000    -0.00698    -0.00000    -0.00000     0.00000
           HX7              0.25372    -0.00000    -0.20380    -0.23120     0.04385
           HY7             -0.19825     0.00000     0.16040    -0.33439     0.06410
           HZ7              0.00000    -0.00698    -0.00000    -0.00000     0.00000
           OX8              0.00000    -0.00000    -0.00000     0.00000     0.00000
           OY8              0.01273    -0.00000    -0.02218     0.00926    -0.02517
           OZ8              0.00000     0.00005    -0.00000    -0.00000     0.00000
           HX9             -0.00000     0.00000     0.00000    -0.00000     0.00000
           HY9             -0.09890     0.00002     0.17359    -0.07454     0.20074
           HZ9              0.07785    -0.00014    -0.13682    -0.10715     0.29068
           HX10            -0.00000    -0.00000     0.00000    -0.00000     0.00000
           HY10            -0.09890    -0.00002     0.17359    -0.07454     0.20074
           HZ10            -0.07785    -0.00014     0.13682     0.10715    -0.29068
           OX11             0.00000    -0.00000    -0.00000    -0.00000     0.00000
           OY11            -0.01273     0.00000     0.02218    -0.00926     0.02517
           OZ11            -0.00000     0.00005     0.00000    -0.00000     0.00000
           HX12            -0.00000    -0.00000     0.00000    -0.00000     0.00000
           HY12             0.09890    -0.00002    -0.17359     0.07454    -0.20074
           HZ12             0.07785    -0.00014    -0.13682    -0.10715     0.29068
           HX13            -0.00000     0.00000     0.00000    -0.00000     0.00000
           HY13             0.09890     0.00002    -0.17359     0.07454    -0.20074
           HZ13            -0.07785    -0.00014     0.13682     0.10715    -0.29068
           OX14             0.00000    -0.00000    -0.00000     0.00000     0.00000
           OY14             0.00000     0.00000     0.00000     0.00000     0.00000
           OZ14            -0.03432    -0.04926    -0.03417     0.01690     0.02338
           HX15            -0.20324    -0.29479    -0.20794    -0.19508    -0.26970
           HY15            -0.00000    -0.00000    -0.00000    -0.00000    -0.00000
           HZ15             0.26020     0.37656     0.26481    -0.13428    -0.18669
           HX16             0.20324     0.29479     0.20794     0.19508     0.26970
           HY16             0.00000     0.00000     0.00000    -0.00000    -0.00000
           HZ16             0.26020     0.37656     0.26481    -0.13428    -0.18669
           OX17             0.00000     0.00000    -0.00000     0.00000     0.00000
           OY17             0.00000    -0.00000     0.00000     0.00000     0.00000
           OZ17             0.03432    -0.04926     0.03417    -0.01690    -0.02338
           HX18            -0.20324     0.29479    -0.20794    -0.19508    -0.26970
           HY18            -0.00000     0.00000    -0.00000    -0.00000    -0.00000
           HZ18            -0.26020     0.37656    -0.26481     0.13428     0.18669
           HX19             0.20324    -0.29479     0.20794     0.19508     0.26970
           HY19             0.00000    -0.00000     0.00000    -0.00000    -0.00000
           HZ19            -0.26020     0.37656    -0.26481     0.13428     0.18669

                             41 B3u      42 B1u      43 B2u      44 Ag       45 B1g
 Wavenumbers [cm-1]         4046.09     4046.78     4047.76     4056.63     4128.08
 Intensities [km/mol]        329.38      326.85      354.19        0.00        0.00
 Intensities [relative]       63.15       62.66       67.90        0.00        0.00
           FEX1            -0.00017    -0.00000    -0.00000    -0.00000    -0.00000
           FEY1             0.00000    -0.00000    -0.00023    -0.00000     0.00000
           FEZ1            -0.00000    -0.00019     0.00000     0.00000     0.00000
           OX2             -0.03496    -0.00000     0.00000    -0.01878     0.00000
           OY2             -0.00000    -0.00000     0.00008     0.00000    -0.04827
           OZ2              0.00000     0.00005    -0.00000     0.00000     0.00000
           HX3              0.27803     0.00000     0.00158     0.14806     0.28756
           HY3              0.40128     0.00000     0.00034     0.21230     0.38320
           HZ3             -0.00000     0.00049    -0.00000    -0.00000    -0.00000
           HX4              0.27803     0.00000    -0.00158     0.14806    -0.28756
           HY4             -0.40128    -0.00000     0.00034    -0.21230     0.38320
           HZ4             -0.00000     0.00049     0.00000    -0.00000     0.00000
           OX5             -0.03496     0.00000    -0.00000     0.01878     0.00000
           OY5              0.00000    -0.00000     0.00008     0.00000     0.04827
           OZ5             -0.00000     0.00005    -0.00000     0.00000    -0.00000
           HX6              0.27803    -0.00000    -0.00158    -0.14806     0.28756
           HY6             -0.40128     0.00000     0.00034     0.21230    -0.38320
           HZ6              0.00000     0.00049    -0.00000    -0.00000     0.00000
           HX7              0.27803    -0.00000     0.00158    -0.14806    -0.28756
           HY7              0.40128    -0.00000     0.00034    -0.21230    -0.38320
           HZ7              0.00000     0.00049     0.00000    -0.00000    -0.00000
           OX8              0.00007    -0.00000    -0.00000    -0.00000    -0.00015
           OY8              0.00000    -0.00000    -0.03490    -0.02245     0.00000
           OZ8             -0.00000     0.00002     0.00000    -0.00000     0.00000
           HX9              0.00051     0.00000     0.00000     0.00000     0.00114
           HY9             -0.00000     0.00183     0.27820     0.17760     0.00000
           HZ9             -0.00000     0.00072     0.40121     0.25486     0.00000
           HX10             0.00051    -0.00000     0.00000     0.00000     0.00114
           HY10            -0.00000    -0.00183     0.27820     0.17760     0.00000
           HZ10             0.00000     0.00072    -0.40121    -0.25486    -0.00000
           OX11             0.00007     0.00000     0.00000    -0.00000     0.00015
           OY11            -0.00000     0.00000    -0.03490     0.02245     0.00000
           OZ11            -0.00000     0.00002    -0.00000     0.00000    -0.00000
           HX12             0.00051    -0.00000    -0.00000     0.00000    -0.00114
           HY12             0.00000    -0.00183     0.27820    -0.17760     0.00000
           HZ12            -0.00000     0.00072    -0.40121     0.25486    -0.00000
           HX13             0.00051     0.00000    -0.00000     0.00000    -0.00114
           HY13             0.00000     0.00183     0.27820    -0.17760     0.00000
           HZ13             0.00000     0.00072     0.40121    -0.25486     0.00000
           OX14             0.00001     0.00000     0.00000     0.00000     0.00000
           OY14            -0.00000    -0.00000     0.00007    -0.00000    -0.00000
           OZ14            -0.00000    -0.03491    -0.00000    -0.01978    -0.00000
           HX15             0.00064     0.40136     0.00000     0.22420    -0.00003
           HY15             0.00000     0.00000     0.00052     0.00000     0.00022
           HZ15             0.00173     0.27796     0.00000     0.15612    -0.00002
           HX16             0.00064    -0.40136    -0.00000    -0.22420    -0.00003
           HY16            -0.00000     0.00000     0.00052     0.00000    -0.00022
           HZ16            -0.00173     0.27796     0.00000     0.15612     0.00002
           OX17             0.00001    -0.00000     0.00000     0.00000     0.00000
           OY17            -0.00000     0.00000     0.00007    -0.00000    -0.00000
           OZ17             0.00000    -0.03491     0.00000     0.01978     0.00000
           HX18             0.00064    -0.40136     0.00000     0.22420    -0.00003
           HY18             0.00000    -0.00000     0.00052     0.00000     0.00022
           HZ18            -0.00173     0.27796    -0.00000    -0.15612     0.00002
           HX19             0.00064     0.40136    -0.00000    -0.22420    -0.00003
           HY19            -0.00000    -0.00000     0.00052     0.00000    -0.00022
           HZ19             0.00173     0.27796    -0.00000    -0.15612    -0.00002

                             46 B3g      47 B2u      48 B1u      49 B2g      50 B3u
[...]
 Vibration   11  0.166731D+01          0.222015          0.511209
 Vibration   12  0.165920D+01          0.219899          0.506336
 Vibration   13  0.162654D+01          0.211265          0.486456
 Vibration   14  0.159055D+01          0.201546          0.464077
 Vibration   15  0.154707D+01          0.189511          0.436365
 Vibration   16  0.138734D+01          0.142184          0.327390
 Vibration   17  0.138157D+01          0.140372          0.323220
 Vibration   18  0.136819D+01          0.136145          0.313485
 Vibration   19  0.133559D+01          0.125673          0.289374
 Vibration   20  0.127300D+01          0.104830          0.241379
 Vibration   21  0.126986D+01          0.103755          0.238904
 Vibration   22  0.123811D+01          0.092759          0.213587
 Vibration   23  0.123718D+01          0.092432          0.212833
 Vibration   24  0.121710D+01          0.085325          0.196468
 Vibration   25  0.120705D+01          0.081725          0.188180
 Vibration   26  0.119071D+01          0.075807          0.174552
 Vibration   27  0.112140D+01          0.049759          0.114574
 Vibration   28  0.111645D+01          0.047841          0.110157
 Vibration   29  0.111479D+01          0.047193          0.108665
 Vibration   30  0.111291D+01          0.046459          0.106975
 Vibration   31  0.111006D+01          0.045348          0.104417
 Vibration   32  0.110731D+01          0.044270          0.101936
 Total           0.172197D+22         21.236026         32.323318

                       H(T)-H(0)              Cv                 S
                       [kJ/Mol]          [J/Mol K]          [J/Mol K] 
 Electronic               0.000              0.000             13.382
 Translation              4.365             12.472            175.679
 Rotation                 4.365             12.472            112.950
 Vibration               50.064            230.075            280.849
 Vibration  1             2.930              8.258             18.735
 Vibration  2             2.931              8.256             18.593
 Vibration  3             2.939              8.233             17.249
 Vibration  4             2.940              8.228             16.993
 Vibration  5             2.944              8.217             16.498
 Vibration  6             2.964              8.161             14.614
 Vibration  7             2.972              8.139             14.057
 Vibration  8             2.979              8.118             13.602
 Vibration  9             2.983              8.109             13.409
 Vibration 10             2.999              8.064             12.595
 Vibration 11             3.111              7.757              9.331
 Vibration 12             3.114              7.748              9.269
 Vibration 13             3.128              7.712              9.014
 Vibration 14             3.144              7.666              8.723
 Vibration 15             3.168              7.605              8.357
 Vibration 16             3.295              7.273              6.831
 Vibration 17             3.301              7.256              6.769
 Vibration 18             3.316              7.217              6.625
 Vibration 19             3.359              7.110              6.260
 Vibration 20             3.463              6.850              5.502
 Vibration 21             3.470              6.834              5.461
 Vibration 22             3.541              6.662              5.040
 Vibration 23             3.543              6.657              5.027
 Vibration 24             3.597              6.529              4.745
 Vibration 25             3.627              6.458              4.600
 Vibration 26             3.681              6.334              4.356
 Vibration 27             4.020              5.595              3.197
 Vibration 28             4.055              5.523              3.105
 Vibration 29             4.067              5.499              3.073
 Vibration 30             4.081              5.470              3.037
 Vibration 31             4.103              5.426              2.983
 Vibration 32             4.125              5.382              2.930
 Volume (RT)              2.910              0.000              0.000
 Total                   61.705            255.019            582.860

 Thermal energies including ZPE:

 H(T)-E(0)              477.272 kJ/Mol
 U(T)-E(0)              474.362 kJ/Mol

                       H(T)-H(0)              Cv                 S
                       [kcal/Mol]        [cal/Mol K]        [cal/Mol K] 
 Electronic               0.000              0.000              3.198
 Translation              1.043              2.981             41.988
 Rotation                 1.043              2.981             26.996
 Vibration               11.966             54.989             67.125
 Vibration  1             0.700              1.974              4.478
 Vibration  2             0.700              1.973              4.444
 Vibration  3             0.702              1.968              4.123
 Vibration  4             0.703              1.967              4.062
 Vibration  5             0.704              1.964              3.943
 Vibration  6             0.708              1.951              3.493
 Vibration  7             0.710              1.945              3.360
 Vibration  8             0.712              1.940              3.251
 Vibration  9             0.713              1.938              3.205
 Vibration 10             0.717              1.927              3.010
 Vibration 11             0.743              1.854              2.230
 Vibration 12             0.744              1.852              2.215
 Vibration 13             0.747              1.843              2.154
 Vibration 14             0.752              1.832              2.085
 Vibration 15             0.757              1.818              1.997
 Vibration 16             0.787              1.738              1.633
 Vibration 17             0.789              1.734              1.618
 Vibration 18             0.793              1.725              1.583
 Vibration 19             0.803              1.699              1.496
 Vibration 20             0.828              1.637              1.315
 Vibration 21             0.829              1.633              1.305
 Vibration 22             0.846              1.592              1.205
 Vibration 23             0.847              1.591              1.201
 Vibration 24             0.860              1.560              1.134
 Vibration 25             0.867              1.544              1.099
 Vibration 26             0.880              1.514              1.041
 Vibration 27             0.961              1.337              0.764
 Vibration 28             0.969              1.320              0.742
 Vibration 29             0.972              1.314              0.735
 Vibration 30             0.975              1.307              0.726
 Vibration 31             0.981              1.297              0.713
 Vibration 32             0.986              1.286              0.700
 Volume (RT)              0.696              0.000              0.000
 Total                   14.748             60.951            139.307

 Thermal energies including ZPE:

 H(T)-E(0)              114.071 kcal/Mol
 U(T)-E(0)              113.375 kcal/Mol

 FREQUENCIES * CALCULATION OF THERMODYNAMICAL PROPERTIES

 Temperature   400.000 [K]  Pressure   1.00000 [atm]
 Atom  1: FE        Mass  55.84700
 Atom  2: O         Mass  15.99940
 Atom  3: H         Mass   1.00794
 Atom  4: H         Mass   1.00794
 Atom  5: O         Mass  15.99940
 Atom  6: H         Mass   1.00794
 Atom  7: H         Mass   1.00794
 Atom  8: O         Mass  15.99940
 Atom  9: H         Mass   1.00794
 Atom 10: H         Mass   1.00794
 Atom 11: O         Mass  15.99940
 Atom 12: H         Mass   1.00794
 Atom 13: H         Mass   1.00794
 Atom 14: O         Mass  15.99940
 Atom 15: H         Mass   1.00794
 Atom 16: H         Mass   1.00794
 Atom 17: O         Mass  15.99940
 Atom 18: H         Mass   1.00794
 Atom 19: H         Mass   1.00794

 Molecular Mass:   163.93868 [a.u.]
 Moments of Inertia        1342.85536  1342.85536  1342.85536 [a.u.]
 Point Group D2h   Order of principal axis 2
 Rotational Symmetry factor  4.0


 ? Warning
 ? Low rotational temperature. Assumption of classical rotation may no longer be valid
 ? The problem occurs in therm
 Rotational Temperatures      0.06450     0.06450     0.06450 [K]
 Rotational Constants         1.34394     1.34394     1.34394 [GHz]


 ? Warning
 ? Using the 32 vibrational modes with wavenumbers < 1000 [1/cm] may cause significant error at T=400.0 [K]: Use 0.5*RT instead.
 ? The problem occurs in therm

 Vibrational Temperatures [K]    100.29   102.03   120.09   123.88   131.57
                                 165.59   177.30   187.51   192.03   212.37
                                 320.50   323.07   333.90   346.77   363.84
                                 446.54   450.34   459.43   483.43   538.88
                                 542.07   577.01   578.12   603.36   617.04
                                 641.04   778.15   791.15   795.66   800.86
                                 808.89   816.88  2571.86  2572.61  2573.19
                                2574.23  2574.77  2580.23  5819.76  5820.77
                                5821.38  5822.38  5823.79  5836.55  5939.36
                                5939.44  5940.23  5940.33  5940.34  5941.17

 Zero-Point vibrational Energy      415.567 [kJ/Mol]
                                     99.323 [kcal/Mol]

 Electronic Energy at 0 [K]:                     -1718.347743 [H]
 Electronic Energy + Zero-Point correction:      -1718.189462 [H]
 Electronic Energy at     400.000 [K]:           -1718.162119 [H]
 Enthalpy H at            400.000 [K]:           -1718.160852 [H]
 Free Enthalpy G at       400.000 [K]:           -1718.255106 [H]

 Partition Function  Z                 log10(Z)          ln(Z)
 Electronic      0.500000D+01          0.698970          1.609438
 Translation     0.172011D+09          8.235555         18.963067
 Rotation        0.216412D+06          5.335281         12.284938
 Vibration       0.172220D+09          8.236083         18.964283
 Vibration    1  0.450948D+01          0.654126          1.506181
 Vibration    2  0.444158D+01          0.647538          1.491010
 Vibration    3  0.385589D+01          0.586124          1.349601
 Vibration    4  0.375467D+01          0.574572          1.323001
 Vibration    5  0.356760D+01          0.552376          1.271893
 Vibration    6  0.294998D+01          0.469818          1.081797
 Vibration    7  0.279286D+01          0.446049          1.027065
 Vibration    8  0.267216D+01          0.426862          0.982886
 Vibration    9  0.262291D+01          0.418784          0.964286
 Vibration   10  0.242757D+01          0.385171          0.886889
 Vibration   11  0.181412D+01          0.258665          0.595598
 Vibration   12  0.180470D+01          0.256405          0.590394
 Vibration   13  0.176674D+01          0.247172          0.569134
 Vibration   14  0.172484D+01          0.236749          0.545136
 Vibration   15  0.167416D+01          0.223798          0.515314
 Vibration   16  0.148692D+01          0.172289          0.396709
 Vibration   17  0.148012D+01          0.170296          0.392120
 Vibration   18  0.146432D+01          0.165636          0.381391
 Vibration   19  0.142576D+01          0.154047          0.354706
 Vibration   20  0.135129D+01          0.130750          0.301063
 Vibration   21  0.134753D+01          0.129539          0.298275
 Vibration   22  0.130946D+01          0.117094          0.269618
 Vibration   23  0.130834D+01          0.116722          0.268762
 Vibration   24  0.128413D+01          0.108610          0.250083
 Vibration   25  0.127198D+01          0.104480          0.240575
 Vibration   26  0.125215D+01          0.097656          0.224861
 Vibration   27  0.116677D+01          0.066986          0.154241
 Vibration   28  0.116058D+01          0.064676          0.148923
 Vibration   29  0.115849D+01          0.063894          0.147121
 Vibration   30  0.115613D+01          0.063006          0.145078
 Vibration   31  0.115255D+01          0.061660          0.141979
 Vibration   32  0.114908D+01          0.060352          0.138966
 Total           0.320546D+23         22.505890         32.857443

                       H(T)-H(0)              Cv                 S
                       [kJ/Mol]          [J/Mol K]          [J/Mol K] 
 Electronic               0.000              0.000             13.382
 Translation              4.989             12.472            178.455
 Rotation                 4.989             12.472            114.615
 Vibration               61.810            239.420            312.204
 Vibration  1             3.343              8.271             19.839
 Vibration  2             3.344              8.270             19.696
 Vibration  3             3.351              8.252             18.350
 Vibration  4             3.352              8.248             18.093
 Vibration  5             3.356              8.240             17.597
 Vibration  6             3.373              8.197             15.707
 Vibration  7             3.380              8.180             15.147
 Vibration  8             3.386              8.164             14.690
 Vibration  9             3.389              8.157             14.495
 Vibration 10             3.404              8.122             13.676
 Vibration 11             3.502              7.884             10.376
 Vibration 12             3.505              7.877             10.313
 Vibration 13             3.517              7.848             10.054
 Vibration 14             3.532              7.813              9.757
 Vibration 15             3.552              7.764              9.383
 Vibration 16             3.664              7.502              7.818
 Vibration 17             3.670              7.489              7.755
 Vibration 18             3.684              7.458              7.605
 Vibration 19             3.721              7.372              7.228
 Vibration 20             3.814              7.163              6.438
 Vibration 21             3.820              7.151              6.396
 Vibration 22             3.883              7.011              5.953
 Vibration 23             3.886              7.007              5.940
 Vibration 24             3.934              6.902              5.643
 Vibration 25             3.961              6.845              5.489
 Vibration 26             4.009              6.742              5.229
 Vibration 27             4.314              6.123              3.980
 Vibration 28             4.345              6.062              3.879
 Vibration 29             4.356              6.041              3.845
 Vibration 30             4.369              6.016              3.805
 Vibration 31             4.389              5.978              3.745
 Vibration 32             4.409              5.940              3.687
 Volume (RT)              3.326              0.000              0.000
 Total                   75.113            264.364            618.655

 Thermal energies including ZPE:

 H(T)-E(0)              490.681 kJ/Mol
 U(T)-E(0)              487.355 kJ/Mol

                       H(T)-H(0)              Cv                 S
                       [kcal/Mol]        [cal/Mol K]        [cal/Mol K] 
 Electronic               0.000              0.000              3.198
 Translation              1.192              2.981             42.652
 Rotation                 1.192              2.981             27.394
 Vibration               14.773             57.223             74.618
 Vibration  1             0.799              1.977              4.742
 Vibration  2             0.799              1.976              4.707
 Vibration  3             0.801              1.972              4.386
 Vibration  4             0.801              1.971              4.324
 Vibration  5             0.802              1.969              4.206
 Vibration  6             0.806              1.959              3.754
 Vibration  7             0.808              1.955              3.620
 Vibration  8             0.809              1.951              3.511
 Vibration  9             0.810              1.949              3.464
 Vibration 10             0.813              1.941              3.269
 Vibration 11             0.837              1.884              2.480
 Vibration 12             0.838              1.883              2.465
 Vibration 13             0.841              1.876              2.403
 Vibration 14             0.844              1.867              2.332
 Vibration 15             0.849              1.856              2.243
 Vibration 16             0.876              1.793              1.869
 Vibration 17             0.877              1.790              1.853
 Vibration 18             0.880              1.782              1.818
 Vibration 19             0.889              1.762              1.727
 Vibration 20             0.912              1.712              1.539
 Vibration 21             0.913              1.709              1.529
 Vibration 22             0.928              1.676              1.423
 Vibration 23             0.929              1.675              1.420
 Vibration 24             0.940              1.650              1.349
 Vibration 25             0.947              1.636              1.312
 Vibration 26             0.958              1.611              1.250
 Vibration 27             1.031              1.463              0.951
 Vibration 28             1.039              1.449              0.927
 Vibration 29             1.041              1.444              0.919
 Vibration 30             1.044              1.438              0.909
 Vibration 31             1.049              1.429              0.895
 Vibration 32             1.054              1.420              0.881
 Volume (RT)              0.795              0.000              0.000
 Total                   17.952             63.184            147.862

 Thermal energies including ZPE:

 H(T)-E(0)              117.275 kcal/Mol
 U(T)-E(0)              116.481 kcal/Mol

 Recomputing wavefunction at initial geometry


 **********************************************************************************************************************************
 DATASETS  * FILE   NREC   LENGTH (MB)   RECORD NAMES
              1      18       30.62       500      610      700      900      950      970     1000      129      960     1100   
                                          VAR    BASINP    GEOM    SYMINP    ZMAT    AOBASIS   BASIS     P2S    ABASIS      S 
                                         1400     1410     1200     1210     1080     1600     1650     1700   
                                           T        V       H0       H01     AOSYM     SMH    MOLCAS    OPER   

              2       7        2.58       700     1000      520     2200     5300     5450     5400   
                                         GEOM     BASIS   MCVARS     UHF     HESS     NMOD     FREQ   

 PROGRAMS   *        TOTAL      FREQ      OPTG   UHF-SCF       INT
 CPU TIMES  *       347.23    239.92     86.28      4.73     15.46
 REAL TIME  *       396.07 SEC
 DISK USED  *         1.43 GB (local),       29.34 GB (total)
 SF USED    *         5.65 MB
 GA USED    *         0.01 MB       (max)       0.00 MB       (current)
 **********************************************************************************************************************************

 UHF/cc-pVDZ energy=  -1718.347742773691

   OPTG(UHF-SCF)         UHF-SCF
  -1718.34774277  -1717.85759496
 **********************************************************************************************************************************
 Molpro calculation terminated with 12 warning(s)
