
 Working directory              : /tmp/charlie/molpro.RDYe33aV38/
 Global scratch directory       : /tmp/charlie/molpro.RDYe33aV38/
 Wavefunction directory         : /home/charlie/wfu/
 Main file repository           : /tmp/charlie/molpro.RDYe33aV38/

 id        : dap

 Nodes     nprocs
 charliebox   19
 Distribution of processes:   nprocs(total)=   20   nprocs(compute)=   19   nprocs(helper)=    1
 GA implementation: MPI file
 GA implementation (serial work in mppx): MPI file

 Using customized tuning parameters: mindgm=1; mindgv=20; mindgc=4; mindgr=1; noblas=0; minvec=7
 default implementation of scratch files=sf  


 Variables initialized (1059), CPU time= 0.01 sec
  ***,  ground state
  print,orbitals
  memory,200,m
 
   geometry={ang
  O
  H 1 b1
 H 1 b1 2 a1
  }
 
     b1     =     0.9
 a1 = 104.5
 
   set,charge=0
  basis=cc-pVTZ
   {hf;wf,,1,0;orbprint,6}
 
 
 
 Commands initialized (838), CPU time= 0.01 sec, 726 directives.
 Default parameters read. Elapsed time= 0.08 sec

 Checking input...
 Passed
1


                                         ***  PROGRAM SYSTEM MOLPRO  ***
                                       Copyright, TTI GmbH Stuttgart, 2015
                                  Version 2025.2 linked Wed May 14 02:42:57 2025


 **********************************************************************************************************************************
 LABEL *                                                                                                                                                                 
                                                                                         DATE: 03-Dec-25          TIME: 22:43:34  
 **********************************************************************************************************************************

 SHA1:             57ceb174f4fe6691bc75d8fe641d0297fc3c2b28
 **********************************************************************************************************************************

 Memory per process:       200 MW
 Total memory per node:   3800 MW

 GA preallocation disabled
 GA check disabled

 Variable memory set to 200.0 MW


 B1              =       0.90000000                                  
 A1              =     104.50000000                                  
 CHARGE          =    0.0000000D+00                                  
 SETTING BASIS          =    CC-PVTZ


 Recomputing integrals since basis changed


 Using spherical harmonics

 Library entry O      S cc-pVTZ              selected for orbital group  1
 Library entry O      P cc-pVTZ              selected for orbital group  1
 Library entry O      D cc-pVTZ              selected for orbital group  1
 Library entry O      F cc-pVTZ              selected for orbital group  1
 Library entry H      S cc-pVTZ              selected for orbital group  2
 Library entry H      P cc-pVTZ              selected for orbital group  2
 Library entry H      D cc-pVTZ              selected for orbital group  2


 PROGRAM * SEWARD (Integral evaluation for generally contracted gaussian basis sets)     Author: Roland Lindh, 1990

 Geometry written to block  1 of record 700

 Orientation using atomic masses  
 Molecule type: Asymmetric top,     Order of principal axis = 2
 Symmetry elements: X,Y
 Rotational constants:     323.0539578    929.8087894    495.0573012 GHz  (calculated with average atomic masses)

 Point group  C2v 



 ATOMIC COORDINATES

 NR  ATOM    CHARGE       X              Y              Z

   1  O       8.00    0.000000000    0.000000000   -0.116511990
   2  H       1.00    0.000000000    1.344768070    0.924718699
   3  H       1.00    0.000000000   -1.344768070    0.924718699

 Bond lengths in Bohr (Angstrom)

 1-2  1.700753512  1-3  1.700753512
     ( 0.900000000)     ( 0.900000000)

 Bond angles

  2-1-3  104.50000000

 NUCLEAR CHARGE:                   10
 NUMBER OF PRIMITIVE AOS:          81
 NUMBER OF SYMMETRY AOS:           74
 NUMBER OF CONTRACTIONS:           58   (   23A1  +   11B1  +   17B2  +    7A2  )
 NUMBER OF INNER CORE ORBITALS:     0   (    0A1  +    0B1  +    0B2  +    0A2  )
 NUMBER OF OUTER CORE ORBITALS:     1   (    1A1  +    0B1  +    0B2  +    0A2  )
 NUMBER OF VALENCE ORBITALS:        6   (    3A1  +    1B1  +    2B2  +    0A2  )


 NUCLEAR REPULSION ENERGY 9.77940619

 Eigenvalues of metric

         1 0.224E-02 0.462E-02 0.938E-02 0.360E-01 0.769E-01 0.105E+00 0.142E+00 0.254E+00
         2 0.360E-01 0.981E-01 0.207E+00 0.423E+00 0.497E+00 0.659E+00 0.110E+01 0.135E+01
         3 0.427E-02 0.550E-02 0.465E-01 0.584E-01 0.844E-01 0.134E+00 0.266E+00 0.275E+00
         4 0.909E-01 0.291E+00 0.505E+00 0.832E+00 0.120E+01 0.132E+01 0.234E+01


 Contracted 2-electron integrals neglected if value below      1.0D-11
 AO integral compression algorithm  1   Integral accuracy      1.0D-11

     4.981 MB (compressed) written to integral file (100.0%)

     Node minimum: 0.262 MB, node maximum: 0.262 MB


 NUMBER OF SORTED TWO-ELECTRON INTEGRALS:      20302.     BUFFER LENGTH:  32768
 NUMBER OF SEGMENTS:   1  SEGMENT LENGTH:      20302      RECORD LENGTH: 524288

 Memory used in sort:       0.58 MW

 SORT1 READ      562034. AND WROTE       18549. INTEGRALS IN      1 RECORDS. CPU TIME:     0.05 SEC, REAL TIME:     0.05 SEC
 SORT2 READ      366996. AND WROTE      396151. INTEGRALS IN     19 RECORDS. CPU TIME:     0.00 SEC, REAL TIME:     0.00 SEC

 Node minimum:       19335.  Node maximum:       23671. integrals

 OPERATOR DM      FOR CENTER  0  COORDINATES:    0.000000    0.000000    0.000000


 **********************************************************************************************************************************
 DATASETS  * FILE   NREC   LENGTH (MB)   RECORD NAMES
              1      18       29.08       500      610      700      900      950      970     1000      129      960     1100   
                                          VAR    BASINP    GEOM    SYMINP    ZMAT    AOBASIS   BASIS     P2S    ABASIS      S 
                                         1400     1410     1200     1210     1080     1600     1650     1700   
                                           T        V       H0       H01     AOSYM     SMH    MOLCAS    OPER   

 PROGRAMS   *        TOTAL       INT
 CPU TIMES  *         1.70      1.59
 REAL TIME  *         2.08 SEC
 DISK USED  *        29.42 MB (local),      637.75 MB (total)
 GA USED    *         0.00 MB       (max)       0.00 MB       (current)
 **********************************************************************************************************************************


 Program * Restricted Hartree-Fock

 Orbital guess generated from atomic densities. Full valence occupancy:    4   1   2   0

 Initial occupancy:   3   1   1   0

 NELEC=   10   SYM=1   MS2= 0   THRE=1.0D-08   THRD=3.2D-06   THRG=3.2D-06  HFMA2=F  DIIS_START=2   DIIS_MAX=10   DIIS_INCORE=F

 Level shifts:    0.00 (CLOSED)    0.00 (OPEN)    0.30 (GAP_MIN)

 ITER           ETOT              DE          GRAD        DDIFF     DIIS  NEXP   TIME(IT)  TIME(TOT)  DIAG
   1      -76.01664214     -76.01664214     0.00D+00     0.20D+00     0     0       0.01      0.01    start
   2      -76.04460095      -0.02795881     0.24D-01     0.34D-01     1     0       0.00      0.01    diag
   3      -76.05337749      -0.00877653     0.13D-01     0.10D-01     2     0       0.00      0.01    diag
   4      -76.05353696      -0.00015947     0.13D-02     0.16D-02     3     0       0.00      0.01    diag
   5      -76.05354970      -0.00001274     0.32D-03     0.48D-03     4     0       0.00      0.01    diag
   6      -76.05355026      -0.00000056     0.55D-04     0.99D-04     5     0       0.00      0.01    diag
   7      -76.05355028      -0.00000002     0.90D-05     0.18D-04     6     0       0.00      0.01    diag
   8      -76.05355028      -0.00000000     0.16D-05     0.33D-05     7     0       0.00      0.01    fixocc
   9      -76.05355028      -0.00000000     0.12D-06     0.31D-06     8     0       0.00      0.01    diag
  10      -76.05355028      -0.00000000     0.21D-07     0.41D-07     0     0       0.00      0.01    diag/orth

 Final occupancy:   3   1   1   0

 !RHF STATE 1.1 Energy                -76.053550277361
  RHF One-electron energy            -124.140996755677
  RHF Two-electron energy              38.308040291157
  RHF Kinetic energy                   76.257268614676
  RHF Nuclear energy                    9.779406187159
  RHF Virial quotient                  -0.997328538761

 !RHF STATE 1.1 Dipole moment           0.00000000     0.00000000     0.77793683
 Dipole moment /Debye                   0.00000000     0.00000000     1.97731818

 ELECTRON ORBITALS
 =================

  Orbital  Occupation    Energy    Cen Mu Typ  Coefficients
    1.1     2.00000   -20.54417     1  1  s    0.99939
    2.1     2.00000    -1.37758     1  2  s    0.85019    2  1  s    0.59218
    3.1     2.00000    -0.58859     1  2  s   -0.32135    1  1  pz   0.81779    2  1  s    0.51008
    4.1     0.00000     0.14759     1  4  s   -1.68692    1  3  pz  -0.42286    2  2  s    0.45128    2  3  s    1.29682
    5.1     0.00000     0.63152     1  2  s   -0.41141    1  4  s   -3.04870    1  3  pz  -1.88044    2  1  s    0.39542
                                    2  2  s    3.39342    2  3  s   -0.52593    2  2  pz  -0.45919    2  2  py  -0.29698
    6.1     0.00000     0.66454     1  4  s    4.25344    1  1  pz  -0.65200    1  3  pz   2.49228    2  1  s    0.27725
                                    2  2  s   -2.55913    2  3  s   -1.04901    2  2  pz   0.65517    2  2  py   1.39626
    7.1     0.00000     0.81157     1  3  pz  -1.08381    2  2  s    0.98800    2  3  s   -0.45179    2  2  pz   1.17913
                                    2  2  py  -0.52792
    8.1     0.00000     1.09664     1  2  s   -1.09954    1  4  s    7.89748    1  2  pz   1.05889    1  3  pz   1.67906
                                    1  2  d2+ -0.28704    2  2  s   -4.55596    2  3  s   -0.87437    2  2  pz   0.99271
                                    2  2  py   1.65561
    9.1     0.00000     1.65688     1  1  s    0.33323    1  2  s    1.60445    1  4  s    0.96665    1  1  pz   0.46978
                                    1  2  pz   0.25315    1  2  d2+  0.44701    2  1  s   -0.60680    2  2  s   -0.69323
                                    2  2  pz   1.04396    2  2  py   1.40097
    1.2     2.00000    -0.50962     1  1  px   0.91981
    2.2     0.00000     0.78447     1  1  px  -0.65315    1  2  px  -0.42531    1  3  px   1.54271
    3.2     0.00000     0.96498     1  3  px  -1.00566    2  2  px   1.48375
    4.2     0.00000     2.05977     1  3  px   0.79846    1  2  d1+  1.22741    2  2  px  -1.07259
    5.2     0.00000     3.35488     1  3  px  -0.25820    1  2  d1+ -0.45539    2  1  px  -0.27743    2  2  px   0.38109
                                    2  1  d1+  0.69883    2  1  d2- -0.60740
    6.2     0.00000     3.84397     1  1  px  -1.92879    1  2  px   1.71249    1  3  px   0.61087    2  1  px   0.92249
                                    2  2  px  -0.62335
    7.2     0.00000     4.03761     1  1  px   1.75567    1  2  px  -1.03103    1  2  d1+  0.44751    2  1  px   0.55322
                                    2  2  px  -0.94554    2  1  d1+  0.63706    2  1  d2-  0.69908
    1.3     2.00000    -0.74249     1  1  py   0.74636    2  1  s    0.89698    2  3  s   -0.26806
    2.3     0.00000     0.20859     1  1  py  -0.32370    1  3  py  -0.76610    2  3  s    2.66273
    3.3     0.00000     0.56730     1  3  py  -1.57971    2  1  s    0.63600    2  2  s    2.30970    2  3  s   -0.76309
    4.3     0.00000     0.80913     1  1  py  -0.72186    1  2  py   0.46955    1  3  py   3.25761    1  2  d1-  0.43658
                                    2  2  s   -2.65348    2  3  s   -2.33981    2  2  py   1.40949    2  2  pz   1.18318
    5.3     0.00000     1.23084     1  3  py   1.66072    2  2  s   -1.19869    2  2  py  -1.13485    2  2  pz   1.47415
    6.3     0.00000     1.58067     1  1  py   0.53985    1  2  py   1.12881    1  3  py   0.82365    2  1  s   -0.74071
                                    2  2  s   -2.35114    2  3  s   -0.80128    2  2  py   2.27788    2  2  pz   1.71380
    7.3     0.00000     1.97745     1  2  py  -2.12375    1  3  py  -2.91677    1  2  d1- -1.67868    2  1  s   -2.01392
                                    2  2  s    8.33733    2  3  s    1.15281    2  1  py  -0.31903    2  1  pz  -0.29757
                                    2  2  py  -2.73121    2  2  pz  -1.87745    2  1  d1-  0.37374
    1.4     0.00000     0.87306     2  2  px   1.25625
    2.4     0.00000     2.08610     1  2  d2-  1.32845    2  2  px  -0.98252
    3.4     0.00000     3.62127     2  1  px   0.75337    2  2  px  -0.54565    2  1  d2- -0.39112    2  1  d1+  0.65695
    4.4     0.00000     4.00785     2  1  px   0.85418    2  2  px  -0.69610    2  1  d2-  0.81248    2  1  d1+ -0.26173
    5.4     0.00000     4.40555     1  2  d2-  1.23360    2  1  px  -0.30548    2  2  px  -0.75121    2  1  d2-  0.87349
                                    2  1  d1+  1.08166
    6.4     0.00000     6.97643     1  1  d2-  1.15553    1  2  d2- -0.93729    1  1  f2- -0.38654    2  2  px   0.36176


 HOMO      1.2    -0.509621 =     -13.8675eV
 LUMO      4.1     0.147592 =       4.0162eV
 LUMO-HOMO         0.657213 =      17.8837eV

 Orbitals saved in record  2100.2


 **********************************************************************************************************************************
 DATASETS  * FILE   NREC   LENGTH (MB)   RECORD NAMES
              1      18       29.08       500      610      700      900      950      970     1000      129      960     1100   
                                          VAR    BASINP    GEOM    SYMINP    ZMAT    AOBASIS   BASIS     P2S    ABASIS      S 
                                         1400     1410     1200     1210     1080     1600     1650     1700   
                                           T        V       H0       H01     AOSYM     SMH    MOLCAS    OPER   

              2       4        0.41       700     1000      520     2100   
                                         GEOM     BASIS   MCVARS     RHF  

 PROGRAMS   *        TOTAL    HF-SCF       INT
 CPU TIMES  *         1.92      0.22      1.59
 REAL TIME  *         3.25 SEC
 DISK USED  *        29.63 MB (local),      641.86 MB (total)
 GA USED    *         0.00 MB       (max)       0.00 MB       (current)
 **********************************************************************************************************************************

 HF/cc-pVTZ energy=    -76.053550277361

          HF-SCF
    -76.05355028
 **********************************************************************************************************************************
 Molpro calculation terminated
