
 Working directory              : /tmp/charlie/molpro.zwLrLI7csx/
 Global scratch directory       : /tmp/charlie/molpro.zwLrLI7csx/
 Wavefunction directory         : /home/charlie/wfu/
 Main file repository           : /tmp/charlie/molpro.zwLrLI7csx/

 id        : dap

 Nodes     nprocs
 charliebox   19
 Distribution of processes:   nprocs(total)=   20   nprocs(compute)=   19   nprocs(helper)=    1
 GA implementation: MPI file
 GA implementation (serial work in mppx): MPI file

 Using customized tuning parameters: mindgm=1; mindgv=20; mindgc=4; mindgr=1; noblas=0; minvec=7
 default implementation of scratch files=sf  


 Variables initialized (1059), CPU time= 1.25 sec
  ***,  ground state
  print,orbitals
 symmetry,nosym
   geometry={ang
  O
  H 1 b1
 H 1 b1 2 a1
  }
 
     b1     =     0.9
 a1 = 104.5
 
   set,charge=0
  basis=cc-pVDZ
   {hf;wf,,1,0;orbprint,6;}
 
 {nbo6;save,nbo,2150.2;}
 
 {multi;start,2150.2}
 
 Commands initialized (838), CPU time= 0.15 sec, 726 directives.
 Default parameters read. Elapsed time= 0.09 sec

 Checking input...
 Passed
1


                                         ***  PROGRAM SYSTEM MOLPRO  ***
                                       Copyright, TTI GmbH Stuttgart, 2015
                                  Version 2025.2 linked Wed May 14 02:42:57 2025


 **********************************************************************************************************************************
 LABEL *                                                                                                                                                                 
                                                                                         DATE: 03-Dec-25          TIME: 22:52:15  
 **********************************************************************************************************************************

 SHA1:             57ceb174f4fe6691bc75d8fe641d0297fc3c2b28
 **********************************************************************************************************************************

 Memory per process:        32 MW
 Total memory per node:    608 MW

 GA preallocation disabled
 GA check disabled

 Variable memory set to 32.0 MW



 ZSYMEL=NOSYM

 B1              =       0.90000000                                  
 A1              =     104.50000000                                  
 CHARGE          =    0.0000000D+00                                  
 SETTING BASIS          =    CC-PVDZ


 Recomputing integrals since basis changed


 Using spherical harmonics

 Library entry O      S cc-pVDZ              selected for orbital group  1
 Library entry O      P cc-pVDZ              selected for orbital group  1
 Library entry O      D cc-pVDZ              selected for orbital group  1
 Library entry H      S cc-pVDZ              selected for orbital group  2
 Library entry H      P cc-pVDZ              selected for orbital group  2


 PROGRAM * SEWARD (Integral evaluation for generally contracted gaussian basis sets)     Author: Roland Lindh, 1990

 Geometry written to block  1 of record 700

 Orientation using atomic masses  
 Molecule type: Asymmetric top
 Rotational constants:     323.0539578    929.8087894    495.0573012 GHz  (calculated with average atomic masses)

 Point group  C1  



 ATOMIC COORDINATES

 NR  ATOM    CHARGE       X              Y              Z

   1  O       8.00    0.000000000    0.000000000   -0.116511990
   2  H       1.00    0.000000000    1.344768070    0.924718699
   3  H       1.00    0.000000000   -1.344768070    0.924718699

 Bond lengths in Bohr (Angstrom)

 1-2  1.700753512  1-3  1.700753512
     ( 0.900000000)     ( 0.900000000)

 Bond angles

  2-1-3  104.50000000

 NUCLEAR CHARGE:                   10
 NUMBER OF PRIMITIVE AOS:          41
 NUMBER OF SYMMETRY AOS:           40
 NUMBER OF CONTRACTIONS:           24   (   24A   )
 NUMBER OF INNER CORE ORBITALS:     0   (    0A   )
 NUMBER OF OUTER CORE ORBITALS:     1   (    1A   )
 NUMBER OF VALENCE ORBITALS:        6   (    6A   )


 NUCLEAR REPULSION ENERGY 9.77940619

 EXTRA SYMMETRY OF AOS IN SYMMETRY 1:   1 1 1 2 1 1 2 1 1 1   2 2 1 1 1 1 2 1 1 1   1 2 1 1

 Eigenvalues of metric

         1 0.165E-01 0.368E-01 0.426E-01 0.937E-01 0.151E+00 0.157E+00 0.184E+00 0.221E+00


 Contracted 2-electron integrals neglected if value below      1.0D-11
 AO integral compression algorithm  1   Integral accuracy      1.0D-11

     4.981 MB (compressed) written to integral file ( 78.9%)

     Node minimum: 0.262 MB, node maximum: 0.262 MB


 NUMBER OF SORTED TWO-ELECTRON INTEGRALS:       2280.     BUFFER LENGTH:  32768
 NUMBER OF SEGMENTS:   1  SEGMENT LENGTH:       2280      RECORD LENGTH: 524288

 Memory used in sort:       0.56 MW

 SORT1 READ       59680. AND WROTE        1166. INTEGRALS IN      1 RECORDS. CPU TIME:     0.39 SEC, REAL TIME:     0.39 SEC
 SORT2 READ       21643. AND WROTE       45150. INTEGRALS IN     19 RECORDS. CPU TIME:     0.15 SEC, REAL TIME:     0.15 SEC

 Node minimum:        2235.  Node maximum:        2520. integrals

 OPERATOR DM      FOR CENTER  0  COORDINATES:    0.000000    0.000000    0.000000


 **********************************************************************************************************************************
 DATASETS  * FILE   NREC   LENGTH (MB)   RECORD NAMES
              1      18       29.05       500      610      700      900      950      970     1000      129      960     1100   
                                          VAR    BASINP    GEOM    SYMINP    ZMAT    AOBASIS   BASIS     P2S    ABASIS      S 
                                         1400     1410     1200     1210     1080     1600     1650     1700   
                                           T        V       H0       H01     AOSYM     SMH    MOLCAS    OPER   

 PROGRAMS   *        TOTAL       INT
 CPU TIMES  *         1.98      1.72
 REAL TIME  *         2.66 SEC
 DISK USED  *        29.38 MB (local),      634.48 MB (total)
 GA USED    *         0.00 MB       (max)       0.00 MB       (current)
 **********************************************************************************************************************************


 Program * Restricted Hartree-Fock

 Orbital guess generated from atomic densities. Full valence occupancy:    7

 Initial occupancy:   5

 NELEC=   10   SYM=1   MS2= 0   THRE=1.0D-08   THRD=3.2D-06   THRG=3.2D-06  HFMA2=F  DIIS_START=2   DIIS_MAX=10   DIIS_INCORE=F

 Level shifts:    0.00 (CLOSED)    0.00 (OPEN)    0.30 (GAP_MIN)

 ITER           ETOT              DE          GRAD        DDIFF     DIIS  NEXP   TIME(IT)  TIME(TOT)  DIAG
   1      -75.98509373     -75.98509373     0.00D+00     0.25D+00     0     0       0.00      0.00    start
   2      -76.01424474      -0.02915100     0.22D-01     0.47D-01     1     0       0.00      0.00    diag
   3      -76.02158259      -0.00733785     0.11D-01     0.14D-01     2     0       0.00      0.00    diag
   4      -76.02175824      -0.00017565     0.12D-02     0.28D-02     3     0       0.00      0.00    diag
   5      -76.02176901      -0.00001077     0.28D-03     0.73D-03     4     0       0.00      0.00    diag
   6      -76.02176934      -0.00000033     0.44D-04     0.10D-03     5     0       0.00      0.00    diag
   7      -76.02176935      -0.00000001     0.67D-05     0.21D-04     6     0       0.00      0.00    diag
   8      -76.02176935      -0.00000000     0.61D-06     0.17D-05     7     0       0.00      0.00    fixocc
   9      -76.02176935      -0.00000000     0.46D-07     0.10D-06     0     0       0.00      0.00    diag

 Final occupancy:   5

 !RHF STATE 1.1 Energy                -76.021769349583
  RHF One-electron energy            -124.172877210530
  RHF Two-electron energy              38.371701673788
  RHF Kinetic energy                   76.235935964462
  RHF Nuclear energy                    9.779406187159
  RHF Virial quotient                  -0.997190739352

 !RHF STATE 1.1 Dipole moment           0.00000000     0.00000000     0.78629120
 Dipole moment /Debye                   0.00000000     0.00000000     1.99855288

 ELECTRON ORBITALS
 =================

  Orbital  Occupation    Energy    Cen Mu Typ  Coefficients
    1.1     2.00000   -20.54007     1  1  s    1.00056
    2.1     2.00000    -1.36815     1  2  s    0.85618    2  1  s    0.37153    3  1  s    0.37153
    3.1     2.00000    -0.73136     1  1  py   0.72641    2  1  s    0.57834    3  1  s   -0.57834
    4.1     2.00000    -0.57730     1  2  s   -0.30475    1  1  pz   0.80296    2  1  s    0.34890    3  1  s    0.34890
    5.1     2.00000    -0.49787     1  1  px   0.91704
    6.1     0.00000     0.19456     1  3  s   -0.97250    2  2  s    0.81068    3  2  s    0.81068
    7.1     0.00000     0.26377     1  1  py  -0.38870    1  2  py  -0.49175    2  2  s    1.54414    3  2  s   -1.54414
    8.1     0.00000     0.83347     1  1  py  -0.35524    1  2  py  -0.41810    2  1  s    1.62526    2  2  s   -1.40050
                                    3  1  s   -1.62526    3  2  s    1.40050
    9.1     0.00000     0.91243     1  2  s   -0.45998    1  3  s    0.60018    1  1  pz  -0.49726    1  2  pz   0.31342
                                    2  1  s    1.21996    2  2  s   -1.12195    2  1  py   0.34713    3  1  s    1.21996
                                    3  2  s   -1.12195    3  1  py  -0.34713
   10.1     0.00000     1.15899     1  2  s    0.25151    1  3  s    0.75150    1  1  pz  -1.06105    1  2  pz   1.85767
                                    2  1  s   -1.13068    2  2  s    0.46041    3  1  s   -1.13068    3  2  s    0.46041
   11.1     0.00000     1.19785     1  1  px  -1.39939    1  2  px   1.71946


 HOMO      5.1    -0.497867 =     -13.5477eV
 LUMO      6.1     0.194558 =       5.2942eV
 LUMO-HOMO         0.692426 =      18.8419eV

 Orbitals saved in record  2100.2


 **********************************************************************************************************************************
 DATASETS  * FILE   NREC   LENGTH (MB)   RECORD NAMES
              1      18       29.05       500      610      700      900      950      970     1000      129      960     1100   
                                          VAR    BASINP    GEOM    SYMINP    ZMAT    AOBASIS   BASIS     P2S    ABASIS      S 
                                         1400     1410     1200     1210     1080     1600     1650     1700   
                                           T        V       H0       H01     AOSYM     SMH    MOLCAS    OPER   

              2       4        0.40       700     1000      520     2100   
                                         GEOM     BASIS   MCVARS     RHF  

 PROGRAMS   *        TOTAL    HF-SCF       INT
 CPU TIMES  *         2.17      0.18      1.72
 REAL TIME  *         3.81 SEC
 DISK USED  *        29.56 MB (local),      637.85 MB (total)
 GA USED    *         0.00 MB       (max)       0.00 MB       (current)
 **********************************************************************************************************************************


 *********************************** NBO 7.0 ***********************************
             N A T U R A L   A T O M I C   O R B I T A L   A N D
          N A T U R A L   B O N D   O R B I T A L   A N A L Y S I S
 ************************** Charles Peterson (I101539) *************************
  (c) Copyright 1996-2021 Board of Regents of the University of Wisconsin System
      on behalf of the Theoretical Chemistry Institute.  All rights reserved.

          Cite this program [NBO 7.0.10 (8-Feb-2021)] as:

          NBO 7.0.  E. D. Glendening, J. K. Badenhoop, A. E. Reed,
          J. E. Carpenter, J. A. Bohmann, C. M. Morales, P. Karafiloglou,
          C. R. Landis, and F. Weinhold, Theoretical Chemistry Institute,
          University of Wisconsin, Madison, WI (2018)

       /AONBO  / : Checkpoint the AO to NBO transformation
                   NBOs sorted by energy

 Density matrix read from record         2100.2  Type=RHF/CHARGE  
 Fock matrix read from record            2100.2  Type=RHF/TOTAL  
 Molecular orbitals read from record     2100.2  Type=RHF/CANONICAL  


 NATURAL POPULATIONS:  Natural atomic orbital occupancies

  NAO Atom No lang   Type(AO)    Occupancy      Energy
 - - - - - - - - - - - - - - - - - - - - - - - - - - - -
   1    O  1  s      Cor( 1s)     2.00000     -20.53981
   2    O  1  s      Val( 2s)     1.71766      -0.97331
   3    O  1  s      Ryd( 3s)     0.00146       1.92086
   4    O  1  px     Val( 2p)     1.99322      -0.49067
   5    O  1  px     Ryd( 3p)     0.00205       1.19686
   6    O  1  py     Val( 2p)     1.43239      -0.28805
   7    O  1  py     Ryd( 3p)     0.00385       1.26212
   8    O  1  pz     Val( 2p)     1.72745      -0.40292
   9    O  1  pz     Ryd( 3p)     0.00085       1.21743
  10    O  1  dxy    Ryd( 3d)     0.00000       3.11853
  11    O  1  dxz    Ryd( 3d)     0.00170       3.08186
  12    O  1  dyz    Ryd( 3d)     0.00437       3.73072
  13    O  1  dx2y2  Ryd( 3d)     0.00127       3.42305
  14    O  1  dz2    Ryd( 3d)     0.00204       3.18208

  15    H  2  s      Val( 1s)     0.54971       0.32254
  16    H  2  s      Ryd( 2s)     0.00093       0.44892
  17    H  2  px     Ryd( 2p)     0.00152       1.85550
  18    H  2  py     Ryd( 2p)     0.00229       2.53128
  19    H  2  pz     Ryd( 2p)     0.00140       2.26571

  20    H  3  s      Val( 1s)     0.54971       0.32254
  21    H  3  s      Ryd( 2s)     0.00093       0.44892
  22    H  3  px     Ryd( 2p)     0.00152       1.85550
  23    H  3  py     Ryd( 2p)     0.00229       2.53128
  24    H  3  pz     Ryd( 2p)     0.00140       2.26571


 Summary of Natural Population Analysis:

                                     Natural Population
             Natural    - - - - - - - - - - - - - - - - - - - - - - -
  Atom No    Charge        Core      Valence    Rydberg      Total
 - - - - - - - - - - - - - - - - - - - - - - - - - - - - - - - - - - 
    O  1   -0.88831      2.00000     6.87073    0.01758     8.88831
    H  2    0.44415      0.00000     0.54971    0.00614     0.55585
    H  3    0.44415      0.00000     0.54971    0.00614     0.55585
 ====================================================================
 * Total *  0.00000      2.00000     7.97014    0.02987    10.00000

                                 Natural Population
 - - - - - - - - - - - - - - - - - - - - - - - - - - - - -
   Core                       2.00000 ( 99.9998% of    2)
   Valence                    7.97014 ( 99.6267% of    8)
   Natural Minimal Basis      9.97013 ( 99.7013% of   10)
   Natural Rydberg Basis      0.02987 (  0.2987% of   10)
 - - - - - - - - - - - - - - - - - - - - - - - - - - - - -

    Atom No         Natural Electron Configuration
 - - - - - - - - - - - - - - - - - - - - - - - - - - - - - - - - - - - - - - 
      O  1      [core]2s( 1.72)2p( 5.15)3p( 0.01)3d( 0.01)
      H  2            1s( 0.55)2p( 0.01)
      H  3            1s( 0.55)2p( 0.01)


 NATURAL BOND ORBITAL ANALYSIS:

                            Occupancies       Lewis Structure    Low   High
         Max    Occ     - - - - - - - - - -  - - - - - - - - -   occ   occ
  Cycle  Ctr   Thresh    Lewis   non-Lewis     CR  BD  nC  LP    (L)   (NL)
 ============================================================================
    1     2     1.90     9.99291   0.00709      1   2   0   2     0      0
 - - - - - - - - - - - - - - - - - - - - - - - - - - - - - - - - - - - - - - 

 Structure accepted: No low occupancy Lewis orbitals

 - - - - - - - - - - - - - - - - - - - - - - - - - - - -
   Core                      2.00000 (100.000% of   2)
   Valence Lewis             7.99291 ( 99.911% of   8)
  ==================      =============================
   Total Lewis               9.99291 ( 99.929% of  10)
  - - - - - - - - - - - - - - - - - - - - - - - - - - -
   Valence non-Lewis         0.00005 (  0.000% of  10)
   Rydberg non-Lewis         0.00705 (  0.070% of  10)
  ==================      =============================
   Total non-Lewis           0.00709 (  0.071% of  10)
 - - - - - - - - - - - - - - - - - - - - - - - - - - - -


     (Occupancy)   Bond orbital / Coefficients / Hybrids
 - - - - - - - - -  Lewis - - - - - - - - - - - - - - - - - - - - - - - - - - - 
   1. (2.00000) CR ( 1) O  1            s(100.00%)
                                         1.0000  0.0000  0.0000  0.0000  0.0000
                                         0.0000  0.0000  0.0000  0.0000  0.0000
                                         0.0000  0.0000  0.0000  0.0000
   2. (1.99802) LP ( 1) O  1            s( 48.90%)p 1.04( 51.05%)d 0.00(  0.06%)
                                         0.0000  0.6990  0.0177  0.0000  0.0000
                                         0.0000  0.0000 -0.7143 -0.0170  0.0000
                                         0.0000  0.0000 -0.0033 -0.0234
   3. (1.99697) LP ( 2) O  1            s(  0.00%)p 1.00( 99.92%)d 0.00(  0.08%)
                                         0.0000  0.0000  0.0000  0.9991  0.0320
                                         0.0000  0.0000  0.0000  0.0000  0.0000
                                         0.0291  0.0000  0.0000  0.0000
   4. (1.99896) BD ( 1) O  1- H  2
               ( 72.37%)   0.8507* O  1 s( 25.54%)p 2.91( 74.23%)d 0.01(  0.23%)
                                         0.0000  0.5051 -0.0169  0.0000  0.0000
                                         0.7051 -0.0366  0.4937 -0.0097  0.0000
                                         0.0000  0.0389 -0.0208  0.0180
               ( 27.63%)   0.5256* H  2 s( 99.53%)p 0.00(  0.47%)
                                         0.9976 -0.0004  0.0000 -0.0600 -0.0339
   5. (1.99896) BD ( 1) O  1- H  3
               ( 72.37%)   0.8507* O  1 s( 25.54%)p 2.91( 74.23%)d 0.01(  0.23%)
                                         0.0000  0.5051 -0.0169  0.0000  0.0000
                                        -0.7051  0.0366  0.4937 -0.0097  0.0000
                                         0.0000 -0.0389 -0.0208  0.0180
               ( 27.63%)   0.5256* H  3 s( 99.53%)p 0.00(  0.47%)
                                         0.9976 -0.0004  0.0000  0.0600 -0.0339
 - - - - - - - -  non-Lewis - - - - - - - - - - - - - - - - - - - - - - - - - - 
   6. (0.00002) BD*( 1) O  1- H  2
               ( 27.63%)   0.5256* O  1 s( 25.54%)p 2.91( 74.23%)d 0.01(  0.23%)
               ( 72.37%)  -0.8507* H  2 s( 99.53%)p 0.00(  0.47%)
   7. (0.00002) BD*( 1) O  1- H  3
               ( 27.63%)   0.5256* O  1 s( 25.54%)p 2.91( 74.23%)d 0.01(  0.23%)
               ( 72.37%)  -0.8507* H  3 s( 99.53%)p 0.00(  0.47%)
   8. (0.00000) RY ( 1) O  1            s( 12.82%)p 6.78( 86.90%)d 0.02(  0.27%)
   9. (0.00000) RY ( 2) O  1            s(  1.72%)p22.54( 38.71%)d34.70( 59.58%)
  10. (0.00000) RY ( 3) O  1            s(  0.22%)p58.82( 13.19%)d99.99( 86.59%)
  11. (0.00000) RY ( 4) O  1            s(  0.02%)p99.99( 32.41%)d99.99( 67.57%)
  12. (0.00000) RY ( 5) O  1            s(  0.00%)p 1.00(  0.08%)d99.99( 99.92%)
  13. (0.00000) RY ( 6) O  1            s(  0.00%)p 1.00(  0.05%)d99.99( 99.95%)
  14. (0.00000) RY ( 7) O  1            s(  2.25%)p 7.03( 15.80%)d36.46( 81.96%)
  15. (0.00000) RY ( 8) O  1            s(  0.00%)p 1.00( 99.96%)d 0.00(  0.04%)
  16. (0.00000) RY ( 9) O  1            s( 82.99%)p 0.16( 13.49%)d 0.04(  3.53%)
  17. (0.00152) RY ( 1) H  2            s(  0.00%)p 1.00(100.00%)
                                         0.0000  0.0000  1.0000  0.0000  0.0000
  18. (0.00107) RY ( 2) H  2            s(  7.53%)p12.29( 92.47%)
                                         0.0055  0.2743  0.0000  0.5393 -0.7962
  19. (0.00093) RY ( 3) H  2            s( 90.96%)p 0.10(  9.04%)
                                         0.0076  0.9537  0.0000 -0.0468  0.2969
  20. (0.00000) RY ( 4) H  2            s(  1.98%)p49.40( 98.02%)
  21. (0.00152) RY ( 1) H  3            s(  0.00%)p 1.00(100.00%)
                                         0.0000  0.0000  1.0000  0.0000  0.0000
  22. (0.00107) RY ( 2) H  3            s(  7.53%)p12.29( 92.47%)
                                         0.0055  0.2743  0.0000 -0.5393 -0.7962
  23. (0.00093) RY ( 3) H  3            s( 90.96%)p 0.10(  9.04%)
                                         0.0076  0.9537  0.0000  0.0468  0.2969
  24. (0.00000) RY ( 4) H  3            s(  1.98%)p49.40( 98.02%)


 NHO DIRECTIONALITY AND BOND BENDING (deviation from line of nuclear centers at
                                      the position of maximum hybrid amplitude)

         [Thresholds for printing:  angular deviation  >  1.0 degree]
                                    p- or d-character  > 25.0%
                                    orbital occupancy  >  0.10e

                        Line of Centers        Hybrid 1             Hybrid 2
                        - - - - - - - -  - - - - - - - - - -  - - - - - - - - - 
           NBO            Theta   Phi    Theta   Phi    Dev   Theta   Phi    Dev
 ===============================================================================
   2. LP ( 1) O  1          -      -     180.0    0.0   -       -      -     - 
   3. LP ( 2) O  1          -      -      89.2    0.0   -       -      -     - 
   4. BD ( 1) O  1- H  2   52.2   90.0    53.6   90.0   1.4     -      -     - 
   5. BD ( 1) O  1- H  3   52.2  270.0    53.6  270.0   1.4     -      -     - 


 SECOND ORDER PERTURBATION THEORY ANALYSIS OF FOCK MATRIX IN NBO BASIS

     Threshold for printing:   0.50 kcal/mol
                                                          E(2) E(NL)-E(L) F(L,NL)
      Donor (L) NBO              Acceptor (NL) NBO      kcal/mol   a.u.    a.u.
 ===============================================================================

 within unit  1
    2. LP ( 1) O  1            18. RY ( 2) H  2            0.69    2.58   0.038
    2. LP ( 1) O  1            19. RY ( 3) H  2            0.88    1.39   0.031
    2. LP ( 1) O  1            22. RY ( 2) H  3            0.69    2.58   0.038
    2. LP ( 1) O  1            23. RY ( 3) H  3            0.88    1.39   0.031
    3. LP ( 2) O  1            17. RY ( 1) H  2            2.41    2.35   0.067
    3. LP ( 2) O  1            21. RY ( 1) H  3            2.41    2.35   0.067
    4. BD ( 1) O  1- H  2      22. RY ( 2) H  3            0.77    2.77   0.041
    5. BD ( 1) O  1- H  3      18. RY ( 2) H  2            0.77    2.77   0.041


 NATURAL BOND ORBITALS (Summary):

                                                     Principal Delocalizations
           NBO                 Occupancy    Energy   (geminal,vicinal,remote)
 ===============================================================================
 Molecular unit  1  (H2O)
 - - -  Lewis - - - - - - - - - - - - - - - - - - - 
    1. CR ( 1) O  1             2.00000   -20.53981
    2. LP ( 1) O  1             1.99802    -0.76697  19(v),23(v),18(v),22(v)
    3. LP ( 2) O  1             1.99697    -0.49417  17(v),21(v)
    4. BD ( 1) O  1- H  2       1.99896    -0.95298  22(v)
    5. BD ( 1) O  1- H  3       1.99896    -0.95298  18(v)
 - - -  non-Lewis - - - - - - - - - - - - - - - - - 
    6. BD*( 1) O  1- H  2       0.00002     0.87942
    7. BD*( 1) O  1- H  3       0.00002     0.87942
    8. RY ( 1) O  1             0.00000     1.33366
    9. RY ( 2) O  1             0.00000     2.92058
   10. RY ( 3) O  1             0.00000     3.02726
   11. RY ( 4) O  1             0.00000     2.61104
   12. RY ( 5) O  1             0.00000     3.08775
   13. RY ( 6) O  1             0.00000     3.11365
   14. RY ( 7) O  1             0.00000     2.90814
   15. RY ( 8) O  1             0.00000     1.19935
   16. RY ( 9) O  1             0.00000     1.92879
   17. RY ( 1) H  2             0.00152     1.85550
   18. RY ( 2) H  2             0.00107     1.81269
   19. RY ( 3) H  2             0.00093     0.62381
   20. RY ( 4) H  2             0.00000     2.76025
   21. RY ( 1) H  3             0.00152     1.85550
   22. RY ( 2) H  3             0.00107     1.81269
   23. RY ( 3) H  3             0.00093     0.62381
   24. RY ( 4) H  3             0.00000     2.76025
          - - - - - - - - - - - - - - - -
                 Total Lewis    9.99291  ( 99.9291%)
           Valence non-Lewis    0.00005  (  0.0005%)
           Rydberg non-Lewis    0.00705  (  0.0705%)
          - - - - - - - - - - - - - - - -
               Total unit  1   10.00000  (100.0000%)
              Charge unit  1    0.00000

 $CHOOSE
   LONE 1 2 END
   BOND S 1 2 S 1 3 END
 $END


 Checkpoint NBOs sorted by energy:

  Sort    Occ       Energy   Orig   Label
 - - - - - - - - - - - - - - - - - - - - - - - - - - - - - -
    1.  2.00000   -20.53981    1.   CR ( 1) O  1
    2.  1.99896    -0.95298    4.   BD ( 1) O  1- H  2
    3.  1.99896    -0.95298    5.   BD ( 1) O  1- H  3
    4.  1.99802    -0.76697    2.   LP ( 1) O  1
    5.  1.99697    -0.49417    3.   LP ( 2) O  1
    6.  0.00002     0.87942    7.   BD*( 1) O  1- H  3
    7.  0.00002     0.87942    6.   BD*( 1) O  1- H  2
    8.  0.00093     0.62381   19.   RY ( 3) H  2
    9.  0.00093     0.62381   23.   RY ( 3) H  3
   10.  0.00000     1.19935   15.   RY ( 8) O  1
   11.  0.00000     1.33366    8.   RY ( 1) O  1
   12.  0.00107     1.81269   18.   RY ( 2) H  2
   13.  0.00107     1.81269   22.   RY ( 2) H  3
   14.  0.00152     1.85550   17.   RY ( 1) H  2
   15.  0.00152     1.85550   21.   RY ( 1) H  3
   16.  0.00000     1.92879   16.   RY ( 9) O  1
   17.  0.00000     2.61104   11.   RY ( 4) O  1
   18.  0.00000     2.76025   20.   RY ( 4) H  2
   19.  0.00000     2.76025   24.   RY ( 4) H  3
   20.  0.00000     2.90814   14.   RY ( 7) O  1
   21.  0.00000     2.92058    9.   RY ( 2) O  1
   22.  0.00000     3.02726   10.   RY ( 3) O  1
   23.  0.00000     3.08775   12.   RY ( 5) O  1
   24.  0.00000     3.11365   13.   RY ( 6) O  1

 Checkpoint orbital transformation(s) sent to host program

 NBO analysis completed in 0.02 CPU seconds (0 wall seconds)
 Maximum scratch memory used by NBO was 316694 words (2.42 MB)

  Orbital  Occupation    Energy    Cen Mu Typ  Coefficients
    1.1     2.00000   -20.53981     1  1  s    1.00003
    2.1     1.99896    -0.95298     1  2  s    0.42177    1  1  py   0.51393    1  1  pz   0.36193    2  1  s    0.74205
                                    2  2  s   -0.31305
    3.1     1.99896    -0.95298     1  2  s    0.42177    1  1  py  -0.51393    1  1  pz   0.36193    3  1  s    0.74205
                                    3  2  s   -0.31305
    4.1     1.99802    -0.76697     1  2  s    0.70371    1  1  pz  -0.63076
    5.1     1.99697    -0.49417     1  1  px   0.92256

 NBO orbitals saved to record            2150.2  (orbital set 1)

 Dump information in style XML to xml output                                                                      



 **********************************************************************************************************************************
 DATASETS  * FILE   NREC   LENGTH (MB)   RECORD NAMES
              1      18       29.05       500      610      700      900      950      970     1000      129      960     1100   
                                          VAR    BASINP    GEOM    SYMINP    ZMAT    AOBASIS   BASIS     P2S    ABASIS      S 
                                         1400     1410     1200     1210     1080     1600     1650     1700   
                                           T        V       H0       H01     AOSYM     SMH    MOLCAS    OPER   

              2       5        0.52       700     1000      520     2100     2150   
                                         GEOM     BASIS   MCVARS     RHF      RHF  

 PROGRAMS   *        TOTAL      NBO6    HF-SCF       INT
 CPU TIMES  *         2.96      0.61      0.18      1.72
 REAL TIME  *         4.91 SEC
 DISK USED  *        29.63 MB (local),      639.32 MB (total)
 GA USED    *         0.00 MB       (max)       0.00 MB       (current)
 **********************************************************************************************************************************

 PROGRAM * MULTI (Direct Multiconfiguration SCF)       Authors: P.J. Knowles, H.-J. Werner (1984)
                                                                D.A. Kreplin, P.J. Knowles, H.-J. Werner (2019)


 Number of closed-shell orbitals:   1 (    1)
 Number of active  orbitals:        6 (    6)
 Number of external orbitals:      17 (   17)

 State symmetry 1

 Number of active electrons:   8    Spin symmetry=Singlet   Space symmetry=1
 Number of states:             1
 Number of CSFs:             105   (225 determinants, 225 intermediate states)

 Molecular orbitals read from record     2150.2  Type=RHF/NBO  

 EXTRA SYMMETRY OF MOS IN SYMMETRY 1:   1 1 1 1 2 1 1 1 1 2   1 1 1 2 2 1 1 1 1 1   1 1 2 2

 Wavefunction dump at record             2140.2

 Convergence thresholds  0.10E-04 (gradient)  0.10E-05 (energy)
 
 Number of orbital rotations:  125  ( 6 closed/active, 17 closed/virtual, 0 active/active, 102 active/virtual )
 Total number of variables:    350
 
 Second-order MCSCF: L-BFGS accelerated
 
 ITER  MIC  NCI  NEG     ENERGY(VAR)    ENERGY(PROJ) ENERGY CHANGE       GRAD(0)  GRAD(ORB)   GRAD(CI)      STEP      TIME
   1    6    5    0    -76.04739070     -76.06960525   -0.02221455    0.24561502 0.00135050 0.00000000  0.54E+00      1.15
   2   10    9    0    -76.06973936     -76.06976836   -0.00002900    0.00444649 0.00000848 0.00000000  0.29E-01      4.77
   3   10   10    0    -76.06976840     -76.06976840   -0.00000000    0.00001008 0.00000000 0.00000000  0.77E-04      5.86

 CONVERGENCE REACHED!  Final gradient:    0.00000000 ( 0.47E-09)
                       Final energy:    -76.06976840
 
 First order charge density matrix for state 1.1 saved on record 2140.2 (density set 1)
 
 Results for state 1.1
 =====================
 !MCSCF STATE 1.1 Energy                       -76.069768400150
 Nuclear energy                                  9.77940619
 Kinetic energy                                 76.34650986
 One electron energy                          -124.13051152
 Two electron energy                            38.28133693
 Virial ratio                                    1.99637519
 
 !MCSCF STATE 1.1 Dipole moment                  0.00000000     0.00000000     0.74231230
 Dipole moment /Debye                            0.00000000     0.00000000     1.88676966
 
 No non-zero expectation values
 
 EXTRA SYMMETRY OF MOS IN SYMMETRY 1:   1 2 1 1 1 1 1 1 1 1   1 2 1 2 2 1 1 1 1 2   2 1 1 1
 
  NATURAL ORBITALS 
  ================

  Orbital  Occupation    Energy    Cen Mu Typ  Coefficients
    1.1     2.00000   -20.38514     1  1  s    0.99761
    2.1     1.99953    -0.49946     1  1  px   0.91704
    3.1     1.99924    -1.22156     1  2  s    0.86191    1  1  pz  -0.38636
    4.1     1.98320    -0.87055     1  2  s    0.29104    1  3  s   -0.26196    1  1  pz   0.71745    2  1  s    0.50951
                                    3  1  s    0.50951
    5.1     1.98173    -0.72774     1  1  py   0.73318    2  1  s    0.58417    3  1  s   -0.58417
    6.1     0.01860     0.88349     1  1  py   1.34672    1  2  py  -0.59645    2  1  s   -1.07765    2  2  s    0.37129
                                    3  1  s    1.07765    3  2  s   -0.37129
    7.1     0.01769     0.91292     1  2  s   -1.07399    1  3  s    0.34157    1  1  pz  -1.19480    1  2  pz   0.67797
                                    2  1  s    1.01758    2  2  s   -0.42424    3  1  s    1.01758    3  2  s   -0.42424
 
 Natural orbital dump at molpro section 2140.2 (Orbital set 2)


 **********************************************************************************************************************************
 DATASETS  * FILE   NREC   LENGTH (MB)   RECORD NAMES
              1      19       29.25       500      610      700      900      950      970     1000      129      960     1100   
                                          VAR    BASINP    GEOM    SYMINP    ZMAT    AOBASIS   BASIS     P2S    ABASIS      S 
                                         1400     1410     1200     1210     1080     1600     1650     1700     1380   
                                           T        V       H0       H01     AOSYM     SMH    MOLCAS    OPER     JKOP   

              2       6        0.63       700     1000      520     2100     2150     2140   
                                         GEOM     BASIS   MCVARS     RHF      RHF     MCSCF   

 PROGRAMS   *        TOTAL     MULTI      NBO6    HF-SCF       INT
 CPU TIMES  *         8.34      5.14      0.61      0.18      1.72
 REAL TIME  *        12.55 SEC
 DISK USED  *        29.95 MB (local),      645.34 MB (total)
 SF USED    *         0.75 MB
 GA USED    *         0.00 MB       (max)       0.00 MB       (current)
 **********************************************************************************************************************************

 MULTI/cc-pVDZ energy=    -76.069768400150

           MULTI          HF-SCF
    -76.06976840    -76.02176935
 **********************************************************************************************************************************
 Molpro calculation terminated
