3
step=5 E=-1413.53003827 (converged M06/6-31G*)
Fe        0.00000000      0.00000000      0.00000000
O         0.00000000      0.00000000     -1.75581672
O         0.00000000      0.00000000      1.75581672
