[Molden Format]
[N_Atoms]
 8
[Atoms] (AU)
O1          1      8           0.00000000     -2.50578995     -2.30891334
C2          2      6           0.00000000     -1.40631082     -0.27578991
C3          3      6           0.00000000      1.36298904     -0.00553244
C4          4      6           0.00000000      2.42931874      2.30364832
H5          5      1           0.00000000     -2.48000592      1.51979046
H6          6      1           0.00000000      2.46503058     -1.73420522
H7          7      1           0.00000000      1.26509146      3.99534475
H8          8      1           0.00000000      4.46141616      2.56603929
[5D]
[7F]
[9G]
[Charge] (Mulliken)
 -0.372297861202059
 0.427657958533289
 7.007242080366893E-002
 0.168079409269671
 -9.248212966653568E-002
 -7.031044579205736E-002
 -6.955668211156985E-002
 -6.116266983477270E-002
[GTO] (AU)
   1
   s  14
  1.053749500E+05  1.238600013E-04
  1.567924000E+04  5.120100053E-04
  3.534544700E+03  2.152910022E-03
  9.873651600E+02  8.528440089E-03
  3.159787500E+02  3.018049031E-02
  1.116542800E+02  9.099702095E-02
  4.269945100E+01  2.177936423E-01
  1.739559600E+01  3.686245738E-01
  7.438309000E+00  3.366707335E-01
  3.222862000E+00  9.657630101E-02
  1.253877000E+00  2.144520022E-03
  4.951550000E-01  1.194350012E-03
  1.916650000E-01  5.390200056E-04
  6.708300000E-02  2.103400022E-04
   s  14
  1.053749500E+05 -2.815000008E-05
  1.567924000E+04 -1.163000003E-04
  3.534544700E+03 -4.909200013E-04
  9.873651600E+02 -1.946160005E-03
  3.159787500E+02 -7.005300019E-03
  1.116542800E+02 -2.167814006E-02
  4.269945100E+01 -5.641213015E-02
  1.739559600E+01 -1.127053003E-01
  7.438309000E+00 -1.589119704E-01
  3.222862000E+00 -3.355083009E-02
  1.253877000E+00  3.531902810E-01
  4.951550000E-01  5.534199315E-01
  1.916650000E-01  2.301839106E-01
  6.708300000E-02  1.127267003E-02
   s  14
  1.053749500E+05  2.615999981E-05
  1.567924000E+04  1.074799992E-04
  3.534544700E+03  4.597199967E-04
  9.873651600E+02  1.795549987E-03
  3.159787500E+02  6.675739952E-03
  1.116542800E+02  2.053444985E-02
  4.269945100E+01  5.828601958E-02
  1.739559600E+01  1.212969091E-01
  7.438309000E+00  2.264147484E-01
  3.222862000E+00 -4.238699970E-02
  1.253877000E+00 -1.010455373E+00
  4.951550000E-01 -1.538686789E-01
  1.916650000E-01  9.934531929E-01
  6.708300000E-02  1.858725387E-01
   p   9
  2.000000000E+02  9.173000030E-04
  4.653336700E+01  7.377140024E-03
  1.462180900E+01  3.483515011E-02
  5.313064000E+00  1.144397004E-01
  2.102525000E+00  2.554966408E-01
  8.502230000E-01  3.722557412E-01
  3.375970000E-01  3.323314911E-01
  1.288920000E-01  1.400847905E-01
  4.511200000E-02  2.395784008E-02
   p   9
  2.000000000E+02 -8.721300054E-04
  4.653336700E+01 -7.064240043E-03
  1.462180900E+01 -3.330489020E-02
  5.313064000E+00 -1.144127507E-01
  2.102525000E+00 -2.990106818E-01
  8.502230000E-01 -3.198605420E-01
  3.375970000E-01  2.055090013E-01
  1.288920000E-01  5.935926836E-01
  4.511200000E-02  2.822902717E-01
   d   4
  3.750000000E+00  1.360975802E-01
  1.312500000E+00  5.140147507E-01
  4.593750000E-01  4.740712506E-01
  1.607810000E-01  8.166905011E-02
 
   2
   s  14
  5.055750100E+04  1.128874000E-04
  7.524785600E+03  5.295373000E-04
  1.694327600E+03  2.450038300E-03
  4.728227900E+02  1.005398470E-02
  1.517107500E+02  3.545398060E-02
  5.391874600E+01  1.044071086E-01
  2.065931100E+01  2.412894918E-01
  8.383976000E+00  3.834225483E-01
  3.577015000E+00  3.078514393E-01
  1.547118000E+00  6.872442990E-02
  6.130130000E-01  2.224445000E-04
  2.460680000E-01  1.976748900E-03
  9.908700000E-02  2.057859400E-03
  3.468000000E-02  4.182020000E-04
   s  14
  5.055750100E+04 -2.507420000E-05
  7.524785600E+03 -1.175945000E-04
  1.694327600E+03 -5.456275000E-04
  4.728227900E+02 -2.245077100E-03
  1.517107500E+02 -8.043471800E-03
  5.391874600E+01 -2.442588710E-02
  2.065931100E+01 -6.136791180E-02
  8.383976000E+00 -1.177767835E-01
  3.577015000E+00 -1.550487783E-01
  1.547118000E+00 -1.933316860E-02
  6.130130000E-01  3.996930678E-01
  2.460680000E-01  5.589420949E-01
  9.908700000E-02  1.711195023E-01
  3.468000000E-02  7.456244600E-03
   s  14
  5.055750100E+04  1.617880000E-05
  7.524785600E+03  7.497120000E-05
  1.694327600E+03  3.573467000E-04
  4.728227900E+02  1.434931600E-03
  1.517107500E+02  5.508677900E-03
  5.391874600E+01  1.691496900E-02
  2.065931100E+01  5.141665240E-02
  8.383976000E+00  1.137343741E-01
  3.577015000E+00  2.337183944E-01
  1.547118000E+00 -7.183782570E-02
  6.130130000E-01 -1.049090871E+00
  2.460680000E-01 -6.662733990E-02
  9.908700000E-02  1.011999380E+00
  3.468000000E-02  1.656046386E-01
   p   9
  8.333315500E+01  1.344656000E-03
  1.955761100E+01  1.023555500E-02
  6.080365000E+00  4.520067100E-02
  2.179317000E+00  1.410756198E-01
  8.651500000E-01  3.047388085E-01
  3.619440000E-01  3.995281011E-01
  1.547400000E-01  2.719163432E-01
  6.542900000E-02  5.857669330E-02
  2.290000000E-02 -1.263813000E-04
   p   9
  8.333315500E+01 -1.771588500E-03
  1.955761100E+01 -1.456218100E-02
  6.080365000E+00 -5.745733570E-02
  2.179317000E+00 -2.126582848E-01
  8.651500000E-01 -5.271712924E-01
  3.619440000E-01 -9.296977300E-02
  1.547400000E-01  6.630031669E-01
  6.542900000E-02  3.360877793E-01
  2.290000000E-02  5.469524400E-03
   d   4
  1.900000000E+00  1.424518048E-01
  6.650000000E-01  5.591973019E-01
  2.327500000E-01  4.430004380E-01
  8.146300000E-02  4.106653700E-02
 
   3
   s  14
  5.055750100E+04  1.128874000E-04
  7.524785600E+03  5.295373000E-04
  1.694327600E+03  2.450038300E-03
  4.728227900E+02  1.005398470E-02
  1.517107500E+02  3.545398060E-02
  5.391874600E+01  1.044071086E-01
  2.065931100E+01  2.412894918E-01
  8.383976000E+00  3.834225483E-01
  3.577015000E+00  3.078514393E-01
  1.547118000E+00  6.872442990E-02
  6.130130000E-01  2.224445000E-04
  2.460680000E-01  1.976748900E-03
  9.908700000E-02  2.057859400E-03
  3.468000000E-02  4.182020000E-04
   s  14
  5.055750100E+04 -2.507420000E-05
  7.524785600E+03 -1.175945000E-04
  1.694327600E+03 -5.456275000E-04
  4.728227900E+02 -2.245077100E-03
  1.517107500E+02 -8.043471800E-03
  5.391874600E+01 -2.442588710E-02
  2.065931100E+01 -6.136791180E-02
  8.383976000E+00 -1.177767835E-01
  3.577015000E+00 -1.550487783E-01
  1.547118000E+00 -1.933316860E-02
  6.130130000E-01  3.996930678E-01
  2.460680000E-01  5.589420949E-01
  9.908700000E-02  1.711195023E-01
  3.468000000E-02  7.456244600E-03
   s  14
  5.055750100E+04  1.617880000E-05
  7.524785600E+03  7.497120000E-05
  1.694327600E+03  3.573467000E-04
  4.728227900E+02  1.434931600E-03
  1.517107500E+02  5.508677900E-03
  5.391874600E+01  1.691496900E-02
  2.065931100E+01  5.141665240E-02
  8.383976000E+00  1.137343741E-01
  3.577015000E+00  2.337183944E-01
  1.547118000E+00 -7.183782570E-02
  6.130130000E-01 -1.049090871E+00
  2.460680000E-01 -6.662733990E-02
  9.908700000E-02  1.011999380E+00
  3.468000000E-02  1.656046386E-01
   p   9
  8.333315500E+01  1.344656000E-03
  1.955761100E+01  1.023555500E-02
  6.080365000E+00  4.520067100E-02
  2.179317000E+00  1.410756198E-01
  8.651500000E-01  3.047388085E-01
  3.619440000E-01  3.995281011E-01
  1.547400000E-01  2.719163432E-01
  6.542900000E-02  5.857669330E-02
  2.290000000E-02 -1.263813000E-04
   p   9
  8.333315500E+01 -1.771588500E-03
  1.955761100E+01 -1.456218100E-02
  6.080365000E+00 -5.745733570E-02
  2.179317000E+00 -2.126582848E-01
  8.651500000E-01 -5.271712924E-01
  3.619440000E-01 -9.296977300E-02
  1.547400000E-01  6.630031669E-01
  6.542900000E-02  3.360877793E-01
  2.290000000E-02  5.469524400E-03
   d   4
  1.900000000E+00  1.424518048E-01
  6.650000000E-01  5.591973019E-01
  2.327500000E-01  4.430004380E-01
  8.146300000E-02  4.106653700E-02
 
   4
   s  14
  5.055750100E+04  1.128874000E-04
  7.524785600E+03  5.295373000E-04
  1.694327600E+03  2.450038300E-03
  4.728227900E+02  1.005398470E-02
  1.517107500E+02  3.545398060E-02
  5.391874600E+01  1.044071086E-01
  2.065931100E+01  2.412894918E-01
  8.383976000E+00  3.834225483E-01
  3.577015000E+00  3.078514393E-01
  1.547118000E+00  6.872442990E-02
  6.130130000E-01  2.224445000E-04
  2.460680000E-01  1.976748900E-03
  9.908700000E-02  2.057859400E-03
  3.468000000E-02  4.182020000E-04
   s  14
  5.055750100E+04 -2.507420000E-05
  7.524785600E+03 -1.175945000E-04
  1.694327600E+03 -5.456275000E-04
  4.728227900E+02 -2.245077100E-03
  1.517107500E+02 -8.043471800E-03
  5.391874600E+01 -2.442588710E-02
  2.065931100E+01 -6.136791180E-02
  8.383976000E+00 -1.177767835E-01
  3.577015000E+00 -1.550487783E-01
  1.547118000E+00 -1.933316860E-02
  6.130130000E-01  3.996930678E-01
  2.460680000E-01  5.589420949E-01
  9.908700000E-02  1.711195023E-01
  3.468000000E-02  7.456244600E-03
   s  14
  5.055750100E+04  1.617880000E-05
  7.524785600E+03  7.497120000E-05
  1.694327600E+03  3.573467000E-04
  4.728227900E+02  1.434931600E-03
  1.517107500E+02  5.508677900E-03
  5.391874600E+01  1.691496900E-02
  2.065931100E+01  5.141665240E-02
  8.383976000E+00  1.137343741E-01
  3.577015000E+00  2.337183944E-01
  1.547118000E+00 -7.183782570E-02
  6.130130000E-01 -1.049090871E+00
  2.460680000E-01 -6.662733990E-02
  9.908700000E-02  1.011999380E+00
  3.468000000E-02  1.656046386E-01
   p   9
  8.333315500E+01  1.344656000E-03
  1.955761100E+01  1.023555500E-02
  6.080365000E+00  4.520067100E-02
  2.179317000E+00  1.410756198E-01
  8.651500000E-01  3.047388085E-01
  3.619440000E-01  3.995281011E-01
  1.547400000E-01  2.719163432E-01
  6.542900000E-02  5.857669330E-02
  2.290000000E-02 -1.263813000E-04
   p   9
  8.333315500E+01 -1.771588500E-03
  1.955761100E+01 -1.456218100E-02
  6.080365000E+00 -5.745733570E-02
  2.179317000E+00 -2.126582848E-01
  8.651500000E-01 -5.271712924E-01
  3.619440000E-01 -9.296977300E-02
  1.547400000E-01  6.630031669E-01
  6.542900000E-02  3.360877793E-01
  2.290000000E-02  5.469524400E-03
   d   4
  1.900000000E+00  1.424518048E-01
  6.650000000E-01  5.591973019E-01
  2.327500000E-01  4.430004380E-01
  8.146300000E-02  4.106653700E-02
 
   5
   s   8
  1.886144500E+02  9.638500027E-04
  2.827659600E+01  7.491960021E-03
  6.424830000E+00  3.759541011E-02
  1.815041000E+00  1.433949804E-01
  5.910630000E-01  3.486363010E-01
  2.121490000E-01  4.382973612E-01
  7.989100000E-02  1.651066105E-01
  2.796200000E-02  2.102287006E-02
   s   8
  1.886144500E+02 -1.311899994E-03
  2.827659600E+01 -1.034509996E-02
  6.424830000E+00 -5.049529978E-02
  1.815041000E+00 -2.073854991E-01
  5.910630000E-01 -4.350884981E-01
  2.121490000E-01 -2.472969989E-02
  7.989100000E-02  3.225259886E-01
  2.796200000E-02  7.072753770E-01
   p   4
  2.305000000E+00  1.127901896E-01
  8.067500000E-01  4.185075284E-01
  2.823620000E-01  4.700077282E-01
  9.882700000E-02  1.826260293E-01
 
   6
   s   8
  1.886144500E+02  9.638500027E-04
  2.827659600E+01  7.491960021E-03
  6.424830000E+00  3.759541011E-02
  1.815041000E+00  1.433949804E-01
  5.910630000E-01  3.486363010E-01
  2.121490000E-01  4.382973612E-01
  7.989100000E-02  1.651066105E-01
  2.796200000E-02  2.102287006E-02
   s   8
  1.886144500E+02 -1.311899994E-03
  2.827659600E+01 -1.034509996E-02
  6.424830000E+00 -5.049529978E-02
  1.815041000E+00 -2.073854991E-01
  5.910630000E-01 -4.350884981E-01
  2.121490000E-01 -2.472969989E-02
  7.989100000E-02  3.225259886E-01
  2.796200000E-02  7.072753770E-01
   p   4
  2.305000000E+00  1.127901896E-01
  8.067500000E-01  4.185075284E-01
  2.823620000E-01  4.700077282E-01
  9.882700000E-02  1.826260293E-01
 
   7
   s   8
  1.886144500E+02  9.638500027E-04
  2.827659600E+01  7.491960021E-03
  6.424830000E+00  3.759541011E-02
  1.815041000E+00  1.433949804E-01
  5.910630000E-01  3.486363010E-01
  2.121490000E-01  4.382973612E-01
  7.989100000E-02  1.651066105E-01
  2.796200000E-02  2.102287006E-02
   s   8
  1.886144500E+02 -1.311899994E-03
  2.827659600E+01 -1.034509996E-02
  6.424830000E+00 -5.049529978E-02
  1.815041000E+00 -2.073854991E-01
  5.910630000E-01 -4.350884981E-01
  2.121490000E-01 -2.472969989E-02
  7.989100000E-02  3.225259886E-01
  2.796200000E-02  7.072753770E-01
   p   4
  2.305000000E+00  1.127901896E-01
  8.067500000E-01  4.185075284E-01
  2.823620000E-01  4.700077282E-01
  9.882700000E-02  1.826260293E-01
 
   8
   s   8
  1.886144500E+02  9.638500027E-04
  2.827659600E+01  7.491960021E-03
  6.424830000E+00  3.759541011E-02
  1.815041000E+00  1.433949804E-01
  5.910630000E-01  3.486363010E-01
  2.121490000E-01  4.382973612E-01
  7.989100000E-02  1.651066105E-01
  2.796200000E-02  2.102287006E-02
   s   8
  1.886144500E+02 -1.311899994E-03
  2.827659600E+01 -1.034509996E-02
  6.424830000E+00 -5.049529978E-02
  1.815041000E+00 -2.073854991E-01
  5.910630000E-01 -4.350884981E-01
  2.121490000E-01 -2.472969989E-02
  7.989100000E-02  3.225259886E-01
  2.796200000E-02  7.072753770E-01
   p   4
  2.305000000E+00  1.127901896E-01
  8.067500000E-01  4.185075284E-01
  2.823620000E-01  4.700077282E-01
  9.882700000E-02  1.826260293E-01
 
[MO]
Sym=     1a' 
Ene=   -20.5820
Spin= Alpha
Occup=    2.00000
   1         1.00019490
   2         0.00152997
   3        -0.00011771
   4         0.00000000
   5         0.00068632
   6         0.00119860
   7         0.00000000
   8        -0.00020964
   9        -0.00039513
  10         0.00022066
  11         0.00000000
  12         0.00013133
  13        -0.00023367
  14         0.00000000
  15        -0.00029441
  16        -0.00153393
  17        -0.00056467
  18         0.00000000
  19         0.00009991
  20         0.00084136
  21         0.00000000
  22         0.00000083
  23         0.00049238
  24        -0.00029595
  25         0.00000000
  26        -0.00028899
  27         0.00019724
  28         0.00000000
  29         0.00001706
  30         0.00015004
  31         0.00012253
  32         0.00000000
  33        -0.00045162
  34        -0.00041140
  35         0.00000000
  36        -0.00034447
  37        -0.00032844
  38        -0.00001998
  39         0.00000000
  40        -0.00005519
  41        -0.00007657
  42         0.00000000
  43         0.00009369
  44         0.00048419
  45         0.00019166
  46         0.00000000
  47         0.00002306
  48        -0.00025847
  49         0.00000000
  50         0.00004602
  51        -0.00015887
  52         0.00003301
  53         0.00000000
  54         0.00001208
  55         0.00000230
  56         0.00000000
  57        -0.00004137
  58         0.00002327
  59         0.00000000
  60         0.00001862
  61        -0.00005357
  62        -0.00013803
  63        -0.00001368
  64         0.00000000
  65         0.00004176
  66         0.00000158
  67         0.00005675
  68         0.00001613
  69         0.00000000
  70         0.00001520
  71         0.00001112
  72        -0.00004434
  73         0.00000524
  74         0.00000000
  75         0.00000119
  76         0.00001500
Sym=     2a' 
Ene=   -11.3220
Spin= Alpha
Occup=    2.00000
   1        -0.00025676
   2         0.00040388
   3        -0.00009557
   4         0.00000000
   5         0.00037541
   6         0.00060344
   7         0.00000000
   8        -0.00007211
   9        -0.00020246
  10         0.00014286
  11         0.00000000
  12         0.00024036
  13         0.00002365
  14         0.00000000
  15         0.99951237
  16        -0.00339360
  17        -0.00314076
  18         0.00000000
  19        -0.00049353
  20        -0.00067896
  21         0.00000000
  22        -0.00020922
  23         0.00001258
  24         0.00026098
  25         0.00000000
  26         0.00038688
  27        -0.00009060
  28         0.00000000
  29         0.00541167
  30         0.00082775
  31         0.00025909
  32         0.00000000
  33        -0.00112802
  34        -0.00033420
  35         0.00000000
  36        -0.00041351
  37        -0.00019461
  38        -0.00026867
  39         0.00000000
  40         0.00012445
  41        -0.00020944
  42         0.00000000
  43         0.00007957
  44         0.00039854
  45         0.00015623
  46         0.00000000
  47        -0.00003413
  48        -0.00017965
  49         0.00000000
  50         0.00000458
  51        -0.00011230
  52         0.00000713
  53         0.00000000
  54         0.00004347
  55         0.00001846
  56         0.00000000
  57         0.00134236
  58         0.00022985
  59         0.00000000
  60         0.00018675
  61        -0.00039562
  62         0.00014894
  63         0.00005181
  64         0.00000000
  65         0.00000454
  66         0.00006637
  67         0.00000804
  68        -0.00003183
  69         0.00000000
  70         0.00001049
  71         0.00000705
  72         0.00000592
  73         0.00000901
  74         0.00000000
  75        -0.00000020
  76        -0.00000554
Sym=     3a' 
Ene=   -11.2530
Spin= Alpha
Occup=    2.00000
   1         0.00000433
   2         0.00002100
   3         0.00001228
   4         0.00000000
   5         0.00000933
   6         0.00000594
   7         0.00000000
   8         0.00000790
   9         0.00000745
  10        -0.00000159
  11         0.00000000
  12         0.00000508
  13        -0.00000763
  14         0.00000000
  15        -0.00101326
  16         0.00041780
  17         0.00016547
  18         0.00000000
  19         0.00029799
  20         0.00000153
  21         0.00000000
  22         0.00012424
  23        -0.00002020
  24        -0.00007950
  25         0.00000000
  26         0.00003595
  27        -0.00004243
  28         0.00000000
  29         0.19998192
  30         0.00029150
  31        -0.00041232
  32         0.00000000
  33         0.00055143
  34         0.00107959
  35         0.00000000
  36         0.00022314
  37         0.00033084
  38         0.00027626
  39         0.00000000
  40         0.00034268
  41         0.00009189
  42         0.00000000
  43         0.97922919
  44        -0.00336733
  45        -0.00333467
  46         0.00000000
  47        -0.00000825
  48        -0.00002845
  49         0.00000000
  50         0.00000942
  51        -0.00003635
  52         0.00018230
  53         0.00000000
  54         0.00018026
  55        -0.00006574
  56         0.00000000
  57         0.00002231
  58        -0.00002298
  59         0.00000000
  60        -0.00000354
  61        -0.00001884
  62         0.00042599
  63         0.00009331
  64         0.00000000
  65        -0.00004750
  66         0.00008519
  67         0.00115280
  68         0.00021316
  69         0.00000000
  70         0.00011992
  71        -0.00024775
  72         0.00103909
  73         0.00011505
  74         0.00000000
  75        -0.00024761
  76        -0.00007220
Sym=     4a' 
Ene=   -11.2490
Spin= Alpha
Occup=    2.00000
   1        -0.00001704
   2        -0.00005622
   3        -0.00003219
   4         0.00000000
   5         0.00001892
   6        -0.00002327
   7         0.00000000
   8        -0.00001116
   9        -0.00003606
  10         0.00000122
  11         0.00000000
  12        -0.00001254
  13         0.00000008
  14         0.00000000
  15         0.00520909
  16        -0.00100528
  17        -0.00037456
  18         0.00000000
  19        -0.00086829
  20        -0.00006615
  21         0.00000000
  22        -0.00025959
  23        -0.00000164
  24         0.00021581
  25         0.00000000
  26        -0.00008540
  27         0.00013114
  28         0.00000000
  29        -0.97917121
  30         0.00405631
  31         0.00379310
  32         0.00000000
  33         0.00004009
  34         0.00023869
  35         0.00000000
  36        -0.00019982
  37         0.00007792
  38        -0.00009717
  39         0.00000000
  40        -0.00006294
  41         0.00008682
  42         0.00000000
  43         0.20003148
  44        -0.00183170
  45        -0.00107060
  46         0.00000000
  47         0.00048107
  48         0.00099485
  49         0.00000000
  50         0.00014309
  51         0.00024439
  52        -0.00018775
  53         0.00000000
  54        -0.00027131
  55        -0.00013233
  56         0.00000000
  57        -0.00014810
  58        -0.00006856
  59         0.00000000
  60        -0.00001116
  61         0.00004690
  62        -0.00115610
  63        -0.00021438
  64         0.00000000
  65         0.00014312
  66        -0.00025700
  67         0.00007241
  68        -0.00001117
  69         0.00000000
  70         0.00000952
  71        -0.00000458
  72         0.00009721
  73         0.00002610
  74         0.00000000
  75        -0.00002634
  76        -0.00000309
Sym=     5a' 
Ene=    -1.3970
Spin= Alpha
Occup=    2.00000
   1        -0.02121443
   2         0.75476785
   3        -0.01715984
   4         0.00000000
   5         0.07745141
   6         0.14188080
   7         0.00000000
   8        -0.01743875
   9        -0.02771072
  10         0.01492879
  11         0.00000000
  12         0.01656624
  13        -0.00471278
  14         0.00000000
  15        -0.05378640
  16         0.22977525
  17        -0.05673100
  18         0.00000000
  19        -0.05935358
  20        -0.14466526
  21         0.00000000
  22         0.03175964
  23         0.04696284
  24         0.02295010
  25         0.00000000
  26         0.03174223
  27        -0.00510848
  28         0.00000000
  29        -0.00731216
  30         0.04321723
  31        -0.00710385
  32         0.00000000
  33        -0.02937266
  34        -0.01088341
  35         0.00000000
  36         0.00284143
  37        -0.00100273
  38        -0.00416350
  39         0.00000000
  40         0.00688935
  41        -0.00423015
  42         0.00000000
  43        -0.00150097
  44         0.00579513
  45        -0.00410588
  46         0.00000000
  47         0.00076388
  48        -0.00360857
  49         0.00000000
  50         0.00494516
  51         0.00133712
  52        -0.00070245
  53         0.00000000
  54         0.00156093
  55         0.00082386
  56         0.00000000
  57         0.05682825
  58         0.00555745
  59         0.00000000
  60         0.00074079
  61        -0.01473025
  62         0.01774485
  63         0.00313673
  64         0.00000000
  65        -0.00248656
  66         0.00328971
  67         0.00409726
  68        -0.00068504
  69         0.00000000
  70         0.00109465
  71        -0.00070164
  72        -0.00187161
  73        -0.00156229
  74         0.00000000
  75         0.00001110
  76        -0.00022702
Sym=     6a' 
Ene=    -1.0766
Spin= Alpha
Occup=    2.00000
   1        -0.00025976
   2        -0.16926022
   3        -0.00375036
   4         0.00000000
   5         0.02347489
   6         0.00226007
   7         0.00000000
   8        -0.00242202
   9         0.00053045
  10        -0.00220662
  11         0.00000000
  12         0.00179063
  13         0.00004716
  14         0.00000000
  15        -0.02197725
  16         0.13922673
  17        -0.03328883
  18         0.00000000
  19         0.11615838
  20         0.05637912
  21         0.00000000
  22        -0.02905832
  23        -0.02487149
  24        -0.01276611
  25         0.00000000
  26        -0.00047608
  27        -0.01219982
  28         0.00000000
  29        -0.05404228
  30         0.45589359
  31        -0.03939299
  32         0.00000000
  33        -0.02854600
  34         0.12677638
  35         0.00000000
  36        -0.02138061
  37        -0.00061544
  38         0.01011364
  39         0.00000000
  40         0.01410704
  41        -0.01424646
  42         0.00000000
  43        -0.05884666
  44         0.32557999
  45        -0.06529258
  46         0.00000000
  47        -0.05356038
  48        -0.11802210
  49         0.00000000
  50         0.01621840
  51         0.01200167
  52         0.01539433
  53         0.00000000
  54         0.01562094
  55        -0.00185442
  56         0.00000000
  57         0.06847345
  58        -0.00313031
  59         0.00000000
  60         0.00924774
  61        -0.00800222
  62         0.14430171
  63        -0.00230384
  64         0.00000000
  65        -0.01008679
  66         0.02166890
  67         0.13597540
  68        -0.00343736
  69         0.00000000
  70         0.01061287
  71        -0.02060834
  72         0.11460204
  73        -0.00741731
  74         0.00000000
  75        -0.02022946
  76        -0.00510349
Sym=     7a' 
Ene=    -0.8807
Spin= Alpha
Occup=    2.00000
   1         0.00751046
   2         0.33054115
   3         0.01580783
   4         0.00000000
   5        -0.09368723
   6        -0.11683818
   7         0.00000000
   8         0.01158056
   9         0.00906237
  10        -0.00311171
  11         0.00000000
  12        -0.00730810
  13         0.00050305
  14         0.00000000
  15         0.02866553
  16        -0.40001851
  17         0.02873730
  18         0.00000000
  19        -0.14939974
  20        -0.08356747
  21         0.00000000
  22         0.00315359
  23         0.02645665
  24         0.00815771
  25         0.00000000
  26         0.00922338
  27         0.01830133
  28         0.00000000
  29         0.00587400
  30        -0.17741353
  31        -0.00261732
  32         0.00000000
  33         0.19096591
  34         0.09505876
  35         0.00000000
  36        -0.04739057
  37        -0.05194697
  38         0.01617121
  39         0.00000000
  40         0.00828852
  41         0.01960151
  42         0.00000000
  43        -0.03430390
  44         0.40809941
  45        -0.02166520
  46         0.00000000
  47         0.02879978
  48        -0.00975350
  49         0.00000000
  50        -0.02689408
  51        -0.03047195
  52         0.01110288
  53         0.00000000
  54        -0.00028117
  55        -0.00863028
  56         0.00000000
  57        -0.17918009
  58         0.01493139
  59         0.00000000
  60        -0.01495042
  61         0.01882473
  62        -0.06825884
  63         0.00325973
  64         0.00000000
  65         0.01224742
  66        -0.00215032
  67         0.16779155
  68        -0.01396243
  69         0.00000000
  70         0.01622290
  71        -0.01602599
  72         0.22302913
  73        -0.01209016
  74         0.00000000
  75        -0.02970885
  76        -0.00029190
Sym=     8a' 
Ene=    -0.7833
Spin= Alpha
Occup=    2.00000
   1        -0.00707057
   2        -0.20292029
   3        -0.01248738
   4         0.00000000
   5        -0.07506917
   6         0.22882847
   7         0.00000000
   8        -0.00087925
   9        -0.01295793
  10         0.01358290
  11         0.00000000
  12         0.00064086
  13         0.00459117
  14         0.00000000
  15        -0.01869739
  16         0.26858042
  17        -0.02140429
  18         0.00000000
  19        -0.15289077
  20         0.16031507
  21         0.00000000
  22         0.05366049
  23        -0.02574685
  24         0.00902220
  25         0.00000000
  26         0.00321297
  27        -0.00147872
  28         0.00000000
  29         0.01588618
  30        -0.34970053
  31        -0.00181743
  32         0.00000000
  33        -0.08687144
  34         0.12235195
  35         0.00000000
  36         0.02916371
  37        -0.04265102
  38        -0.00877749
  39         0.00000000
  40        -0.00076039
  41         0.00689975
  42         0.00000000
  43        -0.01144835
  44         0.18219480
  45        -0.00764602
  46         0.00000000
  47        -0.02148755
  48         0.14682601
  49         0.00000000
  50        -0.00425097
  51        -0.04146553
  52        -0.00576202
  53         0.00000000
  54        -0.00462136
  55        -0.01043506
  56         0.00000000
  57         0.30080307
  58        -0.02286672
  59         0.00000000
  60         0.01675377
  61        -0.03000234
  62        -0.28149033
  63         0.02522286
  64         0.00000000
  65         0.01629832
  66        -0.02722070
  67         0.20479062
  68        -0.01135736
  69         0.00000000
  70         0.01542927
  71        -0.01661932
  72         0.09011728
  73        -0.00849137
  74         0.00000000
  75        -0.01058587
  76         0.00547447
Sym=     9a' 
Ene=    -0.6734
Spin= Alpha
Occup=    2.00000
   1        -0.01956765
   2        -0.36605170
   3        -0.03503814
   4         0.00000000
   5         0.39695219
   6         0.40686658
   7         0.00000000
   8        -0.01751405
   9        -0.02083925
  10         0.01267733
  11         0.00000000
  12         0.02418341
  13        -0.00766190
  14         0.00000000
  15        -0.01433754
  16         0.08126301
  17        -0.03121790
  18         0.00000000
  19        -0.03206729
  20        -0.29009428
  21         0.00000000
  22         0.01686413
  23         0.06992846
  24         0.01632935
  25         0.00000000
  26         0.00994618
  27         0.00555881
  28         0.00000000
  29         0.00423555
  30        -0.09342862
  31        -0.00308765
  32         0.00000000
  33         0.02557852
  34        -0.22034300
  35         0.00000000
  36        -0.00248195
  37         0.02428660
  38        -0.00879422
  39         0.00000000
  40         0.00537737
  41        -0.00201240
  42         0.00000000
  43        -0.00411744
  44         0.06181309
  45        -0.00602475
  46         0.00000000
  47         0.22974730
  48         0.14605526
  49         0.00000000
  50        -0.03719502
  51        -0.02424061
  52        -0.01090808
  53         0.00000000
  54        -0.00933105
  55        -0.00683807
  56         0.00000000
  57        -0.13732216
  58         0.01351314
  59         0.00000000
  60        -0.01434633
  61         0.00366922
  62         0.11352660
  63        -0.00940992
  64         0.00000000
  65        -0.00790444
  66         0.00822238
  67         0.02094099
  68        -0.00318967
  69         0.00000000
  70         0.01017968
  71         0.00375863
  72         0.25501655
  73        -0.01484931
  74         0.00000000
  75        -0.02305241
  76         0.00169070
Sym=    10a' 
Ene=    -0.6618