[Molden Format]
[N_Atoms]
 8
[Atoms] (AU)
O1          1      8           0.00000000     -2.74232917     -2.59739662
C2          2      6           0.00000000     -1.55427744     -0.29227430
C3          3      6           0.00000000      1.43421350     -0.07317020
C4          4      6           0.00000000      2.54452700      2.42677212
H5          5      1           0.00000000     -2.69239467      1.67782566
H6          6      1           0.00000000      2.63770656     -1.96417302
H7          7      1           0.00000000      1.18562324      4.21375194
H8          8      1           0.00000000      4.77867026      2.66904635
[5D]
[7F]
[9G]
[Charge] (Mulliken)
 -0.511477967408483
 0.407976824312868
 -3.289461081900935E-002
 4.160810209611299E-002
 1.142083174410369E-002
 3.054206821141192E-002
 2.070456981398106E-002
 3.212018204794520E-002
[GTO] (AU)
   1
   s  14
  1.053749500E+05  1.238600013E-04
  1.567924000E+04  5.120100053E-04
  3.534544700E+03  2.152910022E-03
  9.873651600E+02  8.528440089E-03
  3.159787500E+02  3.018049031E-02
  1.116542800E+02  9.099702095E-02
  4.269945100E+01  2.177936423E-01
  1.739559600E+01  3.686245738E-01
  7.438309000E+00  3.366707335E-01
  3.222862000E+00  9.657630101E-02
  1.253877000E+00  2.144520022E-03
  4.951550000E-01  1.194350012E-03
  1.916650000E-01  5.390200056E-04
  6.708300000E-02  2.103400022E-04
   s  14
  1.053749500E+05 -2.815000008E-05
  1.567924000E+04 -1.163000003E-04
  3.534544700E+03 -4.909200013E-04
  9.873651600E+02 -1.946160005E-03
  3.159787500E+02 -7.005300019E-03
  1.116542800E+02 -2.167814006E-02
  4.269945100E+01 -5.641213015E-02
  1.739559600E+01 -1.127053003E-01
  7.438309000E+00 -1.589119704E-01
  3.222862000E+00 -3.355083009E-02
  1.253877000E+00  3.531902810E-01
  4.951550000E-01  5.534199315E-01
  1.916650000E-01  2.301839106E-01
  6.708300000E-02  1.127267003E-02
   s  14
  1.053749500E+05  2.615999981E-05
  1.567924000E+04  1.074799992E-04
  3.534544700E+03  4.597199967E-04
  9.873651600E+02  1.795549987E-03
  3.159787500E+02  6.675739952E-03
  1.116542800E+02  2.053444985E-02
  4.269945100E+01  5.828601958E-02
  1.739559600E+01  1.212969091E-01
  7.438309000E+00  2.264147484E-01
  3.222862000E+00 -4.238699970E-02
  1.253877000E+00 -1.010455373E+00
  4.951550000E-01 -1.538686789E-01
  1.916650000E-01  9.934531929E-01
  6.708300000E-02  1.858725387E-01
   p   9
  2.000000000E+02  9.173000030E-04
  4.653336700E+01  7.377140024E-03
  1.462180900E+01  3.483515011E-02
  5.313064000E+00  1.144397004E-01
  2.102525000E+00  2.554966408E-01
  8.502230000E-01  3.722557412E-01
  3.375970000E-01  3.323314911E-01
  1.288920000E-01  1.400847905E-01
  4.511200000E-02  2.395784008E-02
   p   9
  2.000000000E+02 -8.721300054E-04
  4.653336700E+01 -7.064240043E-03
  1.462180900E+01 -3.330489020E-02
  5.313064000E+00 -1.144127507E-01
  2.102525000E+00 -2.990106818E-01
  8.502230000E-01 -3.198605420E-01
  3.375970000E-01  2.055090013E-01
  1.288920000E-01  5.935926836E-01
  4.511200000E-02  2.822902717E-01
   d   4
  3.750000000E+00  1.360975802E-01
  1.312500000E+00  5.140147507E-01
  4.593750000E-01  4.740712506E-01
  1.607810000E-01  8.166905011E-02
 
   2
   s  14
  5.055750100E+04  1.128874000E-04
  7.524785600E+03  5.295373000E-04
  1.694327600E+03  2.450038300E-03
  4.728227900E+02  1.005398470E-02
  1.517107500E+02  3.545398060E-02
  5.391874600E+01  1.044071086E-01
  2.065931100E+01  2.412894918E-01
  8.383976000E+00  3.834225483E-01
  3.577015000E+00  3.078514393E-01
  1.547118000E+00  6.872442990E-02
  6.130130000E-01  2.224445000E-04
  2.460680000E-01  1.976748900E-03
  9.908700000E-02  2.057859400E-03
  3.468000000E-02  4.182020000E-04
   s  14
  5.055750100E+04 -2.507420000E-05
  7.524785600E+03 -1.175945000E-04
  1.694327600E+03 -5.456275000E-04
  4.728227900E+02 -2.245077100E-03
  1.517107500E+02 -8.043471800E-03
  5.391874600E+01 -2.442588710E-02
  2.065931100E+01 -6.136791180E-02
  8.383976000E+00 -1.177767835E-01
  3.577015000E+00 -1.550487783E-01
  1.547118000E+00 -1.933316860E-02
  6.130130000E-01  3.996930678E-01
  2.460680000E-01  5.589420949E-01
  9.908700000E-02  1.711195023E-01
  3.468000000E-02  7.456244600E-03
   s  14
  5.055750100E+04  1.617880000E-05
  7.524785600E+03  7.497120000E-05
  1.694327600E+03  3.573467000E-04
  4.728227900E+02  1.434931600E-03
  1.517107500E+02  5.508677900E-03
  5.391874600E+01  1.691496900E-02
  2.065931100E+01  5.141665240E-02
  8.383976000E+00  1.137343741E-01
  3.577015000E+00  2.337183944E-01
  1.547118000E+00 -7.183782570E-02
  6.130130000E-01 -1.049090871E+00
  2.460680000E-01 -6.662733990E-02
  9.908700000E-02  1.011999380E+00
  3.468000000E-02  1.656046386E-01
   p   9
  8.333315500E+01  1.344656000E-03
  1.955761100E+01  1.023555500E-02
  6.080365000E+00  4.520067100E-02
  2.179317000E+00  1.410756198E-01
  8.651500000E-01  3.047388085E-01
  3.619440000E-01  3.995281011E-01
  1.547400000E-01  2.719163432E-01
  6.542900000E-02  5.857669330E-02
  2.290000000E-02 -1.263813000E-04
   p   9
  8.333315500E+01 -1.771588500E-03
  1.955761100E+01 -1.456218100E-02
  6.080365000E+00 -5.745733570E-02
  2.179317000E+00 -2.126582848E-01
  8.651500000E-01 -5.271712924E-01
  3.619440000E-01 -9.296977300E-02
  1.547400000E-01  6.630031669E-01
  6.542900000E-02  3.360877793E-01
  2.290000000E-02  5.469524400E-03
   d   4
  1.900000000E+00  1.424518048E-01
  6.650000000E-01  5.591973019E-01
  2.327500000E-01  4.430004380E-01
  8.146300000E-02  4.106653700E-02
 
   3
   s  14
  5.055750100E+04  1.128874000E-04
  7.524785600E+03  5.295373000E-04
  1.694327600E+03  2.450038300E-03
  4.728227900E+02  1.005398470E-02
  1.517107500E+02  3.545398060E-02
  5.391874600E+01  1.044071086E-01
  2.065931100E+01  2.412894918E-01
  8.383976000E+00  3.834225483E-01
  3.577015000E+00  3.078514393E-01
  1.547118000E+00  6.872442990E-02
  6.130130000E-01  2.224445000E-04
  2.460680000E-01  1.976748900E-03
  9.908700000E-02  2.057859400E-03
  3.468000000E-02  4.182020000E-04
   s  14
  5.055750100E+04 -2.507420000E-05
  7.524785600E+03 -1.175945000E-04
  1.694327600E+03 -5.456275000E-04
  4.728227900E+02 -2.245077100E-03
  1.517107500E+02 -8.043471800E-03
  5.391874600E+01 -2.442588710E-02
  2.065931100E+01 -6.136791180E-02
  8.383976000E+00 -1.177767835E-01
  3.577015000E+00 -1.550487783E-01
  1.547118000E+00 -1.933316860E-02
  6.130130000E-01  3.996930678E-01
  2.460680000E-01  5.589420949E-01
  9.908700000E-02  1.711195023E-01
  3.468000000E-02  7.456244600E-03
   s  14
  5.055750100E+04  1.617880000E-05
  7.524785600E+03  7.497120000E-05
  1.694327600E+03  3.573467000E-04
  4.728227900E+02  1.434931600E-03
  1.517107500E+02  5.508677900E-03
  5.391874600E+01  1.691496900E-02
  2.065931100E+01  5.141665240E-02
  8.383976000E+00  1.137343741E-01
  3.577015000E+00  2.337183944E-01
  1.547118000E+00 -7.183782570E-02
  6.130130000E-01 -1.049090871E+00
  2.460680000E-01 -6.662733990E-02
  9.908700000E-02  1.011999380E+00
  3.468000000E-02  1.656046386E-01
   p   9
  8.333315500E+01  1.344656000E-03
  1.955761100E+01  1.023555500E-02
  6.080365000E+00  4.520067100E-02
  2.179317000E+00  1.410756198E-01
  8.651500000E-01  3.047388085E-01
  3.619440000E-01  3.995281011E-01
  1.547400000E-01  2.719163432E-01
  6.542900000E-02  5.857669330E-02
  2.290000000E-02 -1.263813000E-04
   p   9
  8.333315500E+01 -1.771588500E-03
  1.955761100E+01 -1.456218100E-02
  6.080365000E+00 -5.745733570E-02
  2.179317000E+00 -2.126582848E-01
  8.651500000E-01 -5.271712924E-01
  3.619440000E-01 -9.296977300E-02
  1.547400000E-01  6.630031669E-01
  6.542900000E-02  3.360877793E-01
  2.290000000E-02  5.469524400E-03
   d   4
  1.900000000E+00  1.424518048E-01
  6.650000000E-01  5.591973019E-01
  2.327500000E-01  4.430004380E-01
  8.146300000E-02  4.106653700E-02
 
   4
   s  14
  5.055750100E+04  1.128874000E-04
  7.524785600E+03  5.295373000E-04
  1.694327600E+03  2.450038300E-03
  4.728227900E+02  1.005398470E-02
  1.517107500E+02  3.545398060E-02
  5.391874600E+01  1.044071086E-01
  2.065931100E+01  2.412894918E-01
  8.383976000E+00  3.834225483E-01
  3.577015000E+00  3.078514393E-01
  1.547118000E+00  6.872442990E-02
  6.130130000E-01  2.224445000E-04
  2.460680000E-01  1.976748900E-03
  9.908700000E-02  2.057859400E-03
  3.468000000E-02  4.182020000E-04
   s  14
  5.055750100E+04 -2.507420000E-05
  7.524785600E+03 -1.175945000E-04
  1.694327600E+03 -5.456275000E-04
  4.728227900E+02 -2.245077100E-03
  1.517107500E+02 -8.043471800E-03
  5.391874600E+01 -2.442588710E-02
  2.065931100E+01 -6.136791180E-02
  8.383976000E+00 -1.177767835E-01
  3.577015000E+00 -1.550487783E-01
  1.547118000E+00 -1.933316860E-02
  6.130130000E-01  3.996930678E-01
  2.460680000E-01  5.589420949E-01
  9.908700000E-02  1.711195023E-01
  3.468000000E-02  7.456244600E-03
   s  14
  5.055750100E+04  1.617880000E-05
  7.524785600E+03  7.497120000E-05
  1.694327600E+03  3.573467000E-04
  4.728227900E+02  1.434931600E-03
  1.517107500E+02  5.508677900E-03
  5.391874600E+01  1.691496900E-02
  2.065931100E+01  5.141665240E-02
  8.383976000E+00  1.137343741E-01
  3.577015000E+00  2.337183944E-01
  1.547118000E+00 -7.183782570E-02
  6.130130000E-01 -1.049090871E+00
  2.460680000E-01 -6.662733990E-02
  9.908700000E-02  1.011999380E+00
  3.468000000E-02  1.656046386E-01
   p   9
  8.333315500E+01  1.344656000E-03
  1.955761100E+01  1.023555500E-02
  6.080365000E+00  4.520067100E-02
  2.179317000E+00  1.410756198E-01
  8.651500000E-01  3.047388085E-01
  3.619440000E-01  3.995281011E-01
  1.547400000E-01  2.719163432E-01
  6.542900000E-02  5.857669330E-02
  2.290000000E-02 -1.263813000E-04
   p   9
  8.333315500E+01 -1.771588500E-03
  1.955761100E+01 -1.456218100E-02
  6.080365000E+00 -5.745733570E-02
  2.179317000E+00 -2.126582848E-01
  8.651500000E-01 -5.271712924E-01
  3.619440000E-01 -9.296977300E-02
  1.547400000E-01  6.630031669E-01
  6.542900000E-02  3.360877793E-01
  2.290000000E-02  5.469524400E-03
   d   4
  1.900000000E+00  1.424518048E-01
  6.650000000E-01  5.591973019E-01
  2.327500000E-01  4.430004380E-01
  8.146300000E-02  4.106653700E-02
 
   5
   s   8
  1.886144500E+02  9.638500027E-04
  2.827659600E+01  7.491960021E-03
  6.424830000E+00  3.759541011E-02
  1.815041000E+00  1.433949804E-01
  5.910630000E-01  3.486363010E-01
  2.121490000E-01  4.382973612E-01
  7.989100000E-02  1.651066105E-01
  2.796200000E-02  2.102287006E-02
   s   8
  1.886144500E+02 -1.311899994E-03
  2.827659600E+01 -1.034509996E-02
  6.424830000E+00 -5.049529978E-02
  1.815041000E+00 -2.073854991E-01
  5.910630000E-01 -4.350884981E-01
  2.121490000E-01 -2.472969989E-02
  7.989100000E-02  3.225259886E-01
  2.796200000E-02  7.072753770E-01
   p   4
  2.305000000E+00  1.127901896E-01
  8.067500000E-01  4.185075284E-01
  2.823620000E-01  4.700077282E-01
  9.882700000E-02  1.826260293E-01
 
   6
   s   8
  1.886144500E+02  9.638500027E-04
  2.827659600E+01  7.491960021E-03
  6.424830000E+00  3.759541011E-02
  1.815041000E+00  1.433949804E-01
  5.910630000E-01  3.486363010E-01
  2.121490000E-01  4.382973612E-01
  7.989100000E-02  1.651066105E-01
  2.796200000E-02  2.102287006E-02
   s   8
  1.886144500E+02 -1.311899994E-03
  2.827659600E+01 -1.034509996E-02
  6.424830000E+00 -5.049529978E-02
  1.815041000E+00 -2.073854991E-01
  5.910630000E-01 -4.350884981E-01
  2.121490000E-01 -2.472969989E-02
  7.989100000E-02  3.225259886E-01
  2.796200000E-02  7.072753770E-01
   p   4
  2.305000000E+00  1.127901896E-01
  8.067500000E-01  4.185075284E-01
  2.823620000E-01  4.700077282E-01
  9.882700000E-02  1.826260293E-01
 
   7
   s   8
  1.886144500E+02  9.638500027E-04
  2.827659600E+01  7.491960021E-03
  6.424830000E+00  3.759541011E-02
  1.815041000E+00  1.433949804E-01
  5.910630000E-01  3.486363010E-01
  2.121490000E-01  4.382973612E-01
  7.989100000E-02  1.651066105E-01
  2.796200000E-02  2.102287006E-02
   s   8
  1.886144500E+02 -1.311899994E-03
  2.827659600E+01 -1.034509996E-02
  6.424830000E+00 -5.049529978E-02
  1.815041000E+00 -2.073854991E-01
  5.910630000E-01 -4.350884981E-01
  2.121490000E-01 -2.472969989E-02
  7.989100000E-02  3.225259886E-01
  2.796200000E-02  7.072753770E-01
   p   4
  2.305000000E+00  1.127901896E-01
  8.067500000E-01  4.185075284E-01
  2.823620000E-01  4.700077282E-01
  9.882700000E-02  1.826260293E-01
 
   8
   s   8
  1.886144500E+02  9.638500027E-04
  2.827659600E+01  7.491960021E-03
  6.424830000E+00  3.759541011E-02
  1.815041000E+00  1.433949804E-01
  5.910630000E-01  3.486363010E-01
  2.121490000E-01  4.382973612E-01
  7.989100000E-02  1.651066105E-01
  2.796200000E-02  2.102287006E-02
   s   8
  1.886144500E+02 -1.311899994E-03
  2.827659600E+01 -1.034509996E-02
  6.424830000E+00 -5.049529978E-02
  1.815041000E+00 -2.073854991E-01
  5.910630000E-01 -4.350884981E-01
  2.121490000E-01 -2.472969989E-02
  7.989100000E-02  3.225259886E-01
  2.796200000E-02  7.072753770E-01
   p   4
  2.305000000E+00  1.127901896E-01
  8.067500000E-01  4.185075284E-01
  2.823620000E-01  4.700077282E-01
  9.882700000E-02  1.826260293E-01
 
[MO]
Sym=     1a' 
Ene=   -20.5800
Spin= Alpha
Occup=    2.00000
   1         1.00012858
   2         0.00088852
   3        -0.00001710
   4         0.00000000
   5         0.00052749
   6         0.00099391
   7         0.00000000
   8        -0.00017392
   9        -0.00033751
  10         0.00008207
  11         0.00000000
  12         0.00000178
  13        -0.00017062
  14         0.00000000
  15        -0.00011658
  16        -0.00074211
  17        -0.00040250
  18         0.00000000
  19         0.00015662
  20         0.00065528
  21         0.00000000
  22         0.00012211
  23         0.00052083
  24        -0.00024148
  25         0.00000000
  26        -0.00021108
  27         0.00012977
  28         0.00000000
  29        -0.00001664
  30        -0.00006425
  31         0.00000903
  32         0.00000000
  33        -0.00016789
  34        -0.00033114
  35         0.00000000
  36        -0.00015205
  37        -0.00027763
  38        -0.00000420
  39         0.00000000
  40        -0.00002264
  41        -0.00002563
  42         0.00000000
  43         0.00005989
  44         0.00032146
  45         0.00013302
  46         0.00000000
  47        -0.00001058
  48        -0.00018202
  49         0.00000000
  50         0.00001553
  51        -0.00011402
  52         0.00002251
  53         0.00000000
  54         0.00001735
  55         0.00000092
  56         0.00000000
  57        -0.00009756
  58         0.00000975
  59         0.00000000
  60        -0.00002725
  61        -0.00003541
  62        -0.00013798
  63        -0.00003516
  64         0.00000000
  65         0.00003217
  66        -0.00000595
  67         0.00003443
  68         0.00000720
  69         0.00000000
  70         0.00002028
  71         0.00000743
  72        -0.00001852
  73         0.00001200
  74         0.00000000
  75         0.00000156
  76         0.00001176
Sym=     2a' 
Ene=   -11.3910
Spin= Alpha
Occup=    2.00000
   1        -0.00010196
   2         0.00037723
   3         0.00000556
   4         0.00000000
   5         0.00026751
   6         0.00057544
   7         0.00000000
   8        -0.00004383
   9        -0.00002684
  10         0.00015514
  11         0.00000000
  12         0.00018944
  13         0.00002213
  14         0.00000000
  15         0.99982991
  16        -0.00268383
  17        -0.00184802
  18         0.00000000
  19         0.00025461
  20        -0.00020067
  21         0.00000000
  22         0.00013578
  23        -0.00011508
  24         0.00011824
  25         0.00000000
  26         0.00011270
  27        -0.00022992
  28         0.00000000
  29         0.00315867
  30         0.00012343
  31        -0.00009682
  32         0.00000000
  33        -0.00024918
  34         0.00007162
  35         0.00000000
  36         0.00012892
  37         0.00008178
  38        -0.00015086
  39         0.00000000
  40         0.00005476
  41        -0.00011504
  42         0.00000000
  43        -0.00003061
  44        -0.00013147
  45        -0.00009171
  46         0.00000000
  47         0.00001587
  48         0.00005443
  49         0.00000000
  50         0.00002353
  51         0.00004468
  52        -0.00002682
  53         0.00000000
  54         0.00002432
  55         0.00002510
  56         0.00000000
  57         0.00075577
  58         0.00000221
  59         0.00000000
  60         0.00013154
  61        -0.00029007
  62         0.00007849
  63         0.00000969
  64         0.00000000
  65        -0.00003681
  66         0.00000459
  67         0.00002871
  68         0.00000181
  69         0.00000000
  70         0.00000802
  71        -0.00001025
  72         0.00000650
  73        -0.00001053
  74         0.00000000
  75        -0.00000129
  76        -0.00000820
Sym=     3a' 
Ene=   -11.3250
Spin= Alpha
Occup=    2.00000
   1        -0.00000132
   2        -0.00001073
   3        -0.00001202
   4         0.00000000
   5         0.00000984
   6        -0.00000558
   7         0.00000000
   8         0.00000244
   9        -0.00000767
  10        -0.00000230
  11         0.00000000
  12         0.00000357
  13        -0.00000364
  14         0.00000000
  15        -0.00010418
  16        -0.00001474
  17        -0.00004388
  18         0.00000000
  19        -0.00001365
  20        -0.00001916
  21         0.00000000
  22        -0.00003858
  23        -0.00002755
  24        -0.00002944
  25         0.00000000
  26         0.00001739
  27         0.00000824
  28         0.00000000
  29         0.03837506
  30         0.00010849
  31        -0.00016501
  32         0.00000000
  33         0.00012449
  34         0.00048087
  35         0.00000000
  36        -0.00006553
  37        -0.00001017
  38         0.00017268
  39         0.00000000
  40         0.00022586
  41         0.00007663
  42         0.00000000
  43         0.99902939
  44        -0.00265296
  45        -0.00224449
  46         0.00000000
  47        -0.00009405
  48        -0.00024528
  49         0.00000000
  50        -0.00011374
  51        -0.00033478
  52         0.00017481
  53         0.00000000
  54         0.00011379
  55        -0.00011254
  56         0.00000000
  57        -0.00000589
  58        -0.00003636
  59         0.00000000
  60        -0.00000124
  61        -0.00000788
  62         0.00011863
  63        -0.00000067
  64         0.00000000
  65         0.00000894
  66         0.00004625
  67         0.00080173
  68         0.00009447
  69         0.00000000
  70         0.00017310
  71        -0.00017844
  72         0.00073295
  73         0.00003394
  74         0.00000000
  75        -0.00024377
  76         0.00000939
Sym=     4a' 
Ene=   -11.3120
Spin= Alpha
Occup=    2.00000
   1         0.00000455
   2         0.00000072
   3         0.00000219
   4         0.00000000
   5        -0.00000387
   6        -0.00000198
   7         0.00000000
   8         0.00003014
   9         0.00000512
  10        -0.00000294
  11         0.00000000
  12         0.00000821
  13        -0.00000151
  14         0.00000000
  15        -0.00320494
  16         0.00044834
  17         0.00008058
  18         0.00000000
  19         0.00046455
  20        -0.00005837
  21         0.00000000
  22         0.00003453
  23        -0.00007226
  24        -0.00015220
  25         0.00000000
  26         0.00002659
  27        -0.00009224
  28         0.00000000
  29         0.99905029
  30        -0.00248334
  31        -0.00230662
  32         0.00000000
  33        -0.00005686
  34         0.00034752
  35         0.00000000
  36         0.00025650
  37         0.00029282
  38         0.00012832
  39         0.00000000
  40         0.00010855
  41        -0.00008693
  42         0.00000000
  43        -0.03861449
  44         0.00015810
  45        -0.00005536
  46         0.00000000
  47        -0.00020175
  48        -0.00039917
  49         0.00000000
  50         0.00000061
  51         0.00007887
  52         0.00015654
  53         0.00000000
  54         0.00018790
  55         0.00011298
  56         0.00000000
  57         0.00010346
  58         0.00004616
  59         0.00000000
  60         0.00002390
  61        -0.00001879
  62         0.00083411
  63         0.00006957
  64         0.00000000
  65        -0.00017599
  66         0.00023053
  67         0.00003694
  68        -0.00000007
  69         0.00000000
  70        -0.00001267
  71        -0.00003317
  72         0.00006379
  73        -0.00001520
  74         0.00000000
  75        -0.00001902
  76        -0.00002067
Sym=     5a' 
Ene=    -1.3058
Spin= Alpha
Occup=    2.00000
   1        -0.01384557
   2         0.80342412
   3        -0.00859037
   4         0.00000000
   5         0.05692375
   6         0.10804961
   7         0.00000000
   8        -0.00848117
   9        -0.01348158
  10         0.01235233
  11         0.00000000
  12         0.01276141
  13        -0.00331893
  14         0.00000000
  15        -0.03522525
  16         0.24029638
  17        -0.04344637
  18         0.00000000
  19        -0.05118592
  20        -0.12734681
  21         0.00000000
  22         0.02011681
  23         0.02963578
  24         0.01966559
  25         0.00000000
  26         0.02401276
  27        -0.00535173
  28         0.00000000
  29        -0.00542004
  30         0.05099289
  31        -0.00493057
  32         0.00000000
  33        -0.02611322
  34        -0.00234272
  35         0.00000000
  36         0.00344579
  37         0.00322363
  38        -0.00314988
  39         0.00000000
  40         0.00446414
  41        -0.00416499
  42         0.00000000
  43        -0.00226915
  44         0.00532249
  45        -0.00501926
  46         0.00000000
  47        -0.00052462
  48        -0.00309270
  49         0.00000000
  50         0.00371701
  51         0.00211080
  52        -0.00025518
  53         0.00000000
  54         0.00117972
  55         0.00059099
  56         0.00000000
  57         0.04417276
  58         0.00095744
  59         0.00000000
  60         0.00127475
  61        -0.01049745
  62         0.01489615
  63         0.00196313
  64         0.00000000
  65        -0.00214057
  66         0.00242947
  67         0.00430886
  68         0.00006330
  69         0.00000000
  70         0.00078685
  71        -0.00087659
  72        -0.00018788
  73        -0.00110038
  74         0.00000000
  75        -0.00013708
  76        -0.00025890
Sym=     6a' 
Ene=    -1.0485
Spin= Alpha
Occup=    2.00000
   1        -0.00077101
   2        -0.17649757
   3        -0.00354621
   4         0.00000000
   5         0.01911263
   6         0.01125328
   7         0.00000000
   8        -0.00356877
   9        -0.00155479
  10        -0.00086068
  11         0.00000000
  12         0.00162339
  13         0.00019171
  14         0.00000000
  15        -0.01689477
  16         0.16997053
  17        -0.02686301
  18         0.00000000
  19         0.11094775
  20         0.05402450
  21         0.00000000
  22        -0.01910269
  23        -0.01755829
  24        -0.01101156
  25         0.00000000
  26        -0.00025313
  27        -0.01285269
  28         0.00000000
  29        -0.04246734
  30         0.47081399
  31        -0.03254265
  32         0.00000000
  33        -0.01832464
  34         0.11871722
  35         0.00000000
  36        -0.01503231
  37        -0.00134752
  38         0.01079010
  39         0.00000000
  40         0.01225720
  41        -0.01306017
  42         0.00000000
  43        -0.04490851
  44         0.37305282
  45        -0.05263082
  46         0.00000000
  47        -0.04983183
  48        -0.10811941
  49         0.00000000
  50         0.01312037
  51         0.01214444
  52         0.01527639
  53         0.00000000
  54         0.01336208
  55        -0.00335577
  56         0.00000000
  57         0.06362147
  58        -0.00312925
  59         0.00000000
  60         0.00765949
  61        -0.00834336
  62         0.12061646
  63        -0.00476305
  64         0.00000000
  65        -0.00891620
  66         0.01857283
  67         0.11933996
  68        -0.00678074
  69         0.00000000
  70         0.01086958
  71        -0.01736242
  72         0.10311067
  73        -0.00814697
  74         0.00000000
  75        -0.01805055
  76        -0.00347954
Sym=     7a' 
Ene=    -0.8713
Spin= Alpha
Occup=    2.00000
   1         0.00663050
   2         0.31977985
   3         0.01206448
   4         0.00000000
   5        -0.07342764
   6        -0.11760298
   7         0.00000000
   8         0.00933672
   9         0.00843718
  10        -0.00470214
  11         0.00000000
  12        -0.00671934
  13         0.00004671
  14         0.00000000
  15         0.02388897
  16        -0.45545254
  17         0.03088427
  18         0.00000000
  19        -0.11585102
  20        -0.09646693
  21         0.00000000
  22         0.00017620
  23         0.01647528
  24         0.00444188
  25         0.00000000
  26         0.00819856
  27         0.01783589
  28         0.00000000
  29         0.00523153
  30        -0.15102400
  31         0.00062989
  32         0.00000000
  33         0.18776440
  34         0.10342372
  35         0.00000000
  36        -0.03120805
  37        -0.03247185
  38         0.01720467
  39         0.00000000
  40         0.00884134
  41         0.01912014
  42         0.00000000
  43        -0.02614324
  44         0.41879705
  45        -0.01946227
  46         0.00000000
  47         0.02986896
  48         0.00736492
  49         0.00000000
  50        -0.01775507
  51        -0.01521099
  52         0.00895610
  53         0.00000000
  54        -0.00142158
  55        -0.00974899
  56         0.00000000
  57        -0.17965919
  58         0.02036674
  59         0.00000000
  60        -0.01405056
  61         0.02036905
  62        -0.04983102
  63         0.00438919
  64         0.00000000
  65         0.00858122
  66        -0.00240552
  67         0.14248978
  68        -0.01626708
  69         0.00000000
  70         0.01375755
  71        -0.01354594
  72         0.18592125
  73        -0.01414720
  74         0.00000000
  75        -0.02525343
  76        -0.00032438
Sym=     8a' 
Ene=    -0.7648
Spin= Alpha
Occup=    2.00000
   1        -0.00560292
   2        -0.17283599
   3        -0.00870709
   4         0.00000000
   5        -0.03009932
   6         0.16815873
   7         0.00000000
   8         0.00056037
   9        -0.00804044
  10         0.00977310
  11         0.00000000
  12         0.00204844
  13         0.00248094
  14         0.00000000
  15        -0.01218145
  16         0.29278534
  17        -0.01758869
  18         0.00000000
  19        -0.15604528
  20         0.14896407
  21         0.00000000
  22         0.03395604
  23        -0.01568673
  24         0.01474855
  25         0.00000000
  26        -0.00249251
  27         0.00166867
  28         0.00000000
  29         0.01489746
  30        -0.39912043
  31         0.00250691
  32         0.00000000
  33        -0.09453561
  34         0.12043174
  35         0.00000000
  36         0.01872204
  37        -0.02946715
  38        -0.01003224
  39         0.00000000
  40         0.00265056
  41         0.00615111
  42         0.00000000
  43        -0.00890760
  44         0.23128308
  45        -0.00518357
  46         0.00000000
  47         0.00326091
  48         0.18157625
  49         0.00000000
  50        -0.00436028
  51        -0.03248647
  52        -0.00652848
  53         0.00000000
  54        -0.00825527
  55        -0.01218608
  56         0.00000000
  57         0.26328099
  58        -0.02367951
  59         0.00000000
  60         0.01453332
  61        -0.02561155
  62        -0.26102902
  63         0.02804863
  64         0.00000000
  65         0.01492925
  66        -0.02585984
  67         0.20457745
  68        -0.01395738
  69         0.00000000
  70         0.01557542
  71        -0.01554335
  72         0.11056641
  73        -0.01140386
  74         0.00000000
  75        -0.01250781
  76         0.00445928
Sym=     9a' 
Ene=    -0.6355
Spin= Alpha
Occup=    2.00000
   1        -0.01375104
   2        -0.27338253
   3        -0.02258493
   4         0.00000000
   5         0.19869035
   6         0.34303859
   7         0.00000000
   8        -0.00490499
   9        -0.00711094
  10         0.01404007
  11         0.00000000
  12         0.01505713
  13        -0.00316353
  14         0.00000000
  15        -0.00613360
  16         0.12342606
  17        -0.01876020
  18         0.00000000
  19        -0.12130949
  20        -0.19498811
  21         0.00000000
  22         0.02188207
  23         0.03601849
  24         0.01110719
  25         0.00000000
  26         0.00235294
  27         0.00480976
  28         0.00000000
  29         0.00258538
  30        -0.06267625
  31        -0.00222840
  32         0.00000000
  33         0.11832162
  34        -0.26430025
  35         0.00000000
  36        -0.00571360
  37         0.02502851
  38        -0.00705163
  39         0.00000000
  40        -0.00038230
  41        -0.00141771
  42         0.00000000
  43        -0.00022697
  44         0.04457678
  45        -0.00054860
  46         0.00000000
  47         0.38033073
  48         0.07993034
  49         0.00000000
  50        -0.03624845
  51        -0.00809206
  52        -0.01591883
  53         0.00000000
  54        -0.00319836
  55        -0.00970697
  56         0.00000000
  57        -0.03019631
  58         0.00176372
  59         0.00000000
  60        -0.00742243
  61        -0.00288046
  62         0.18878211
  63        -0.01475747
  64         0.00000000
  65        -0.00953176
  66         0.01397140
  67        -0.11500965
  68         0.00847952
  69         0.00000000
  70         0.00210133
  71         0.01268471
  72         0.33777000
  73        -0.02075001
  74         0.00000000
  75        -0.02757953
  76        -0.00118472
Sym=    10a' 
Ene=    -0.6262