[Molden Format]
[N_Atoms]
 8
[Atoms] (AU)
O1          1      8           0.00000000     -2.74232917     -2.59739662
C2          2      6           0.00000000     -1.55427744     -0.29227430
C3          3      6           0.00000000      1.43421350     -0.07317020
C4          4      6           0.00000000      2.54452700      2.42677212
H5          5      1           0.00000000     -2.69239467      1.67782566
H6          6      1           0.00000000      2.63770656     -1.96417302
H7          7      1           0.00000000      1.18562324      4.21375194
H8          8      1           0.00000000      4.77867026      2.66904635
[5D]
[7F]
[9G]
[Charge] (Mulliken)
 0.00000000000000
 0.00000000000000
 0.00000000000000
 0.00000000000000
 0.00000000000000
 0.00000000000000
 0.00000000000000
 0.00000000000000
[GTO] (AU)
   1
   s  14
  1.053749500E+05  1.238600013E-04
  1.567924000E+04  5.120100053E-04
  3.534544700E+03  2.152910022E-03
  9.873651600E+02  8.528440089E-03
  3.159787500E+02  3.018049031E-02
  1.116542800E+02  9.099702095E-02
  4.269945100E+01  2.177936423E-01
  1.739559600E+01  3.686245738E-01
  7.438309000E+00  3.366707335E-01
  3.222862000E+00  9.657630101E-02
  1.253877000E+00  2.144520022E-03
  4.951550000E-01  1.194350012E-03
  1.916650000E-01  5.390200056E-04
  6.708300000E-02  2.103400022E-04
   s  14
  1.053749500E+05 -2.815000008E-05
  1.567924000E+04 -1.163000003E-04
  3.534544700E+03 -4.909200013E-04
  9.873651600E+02 -1.946160005E-03
  3.159787500E+02 -7.005300019E-03
  1.116542800E+02 -2.167814006E-02
  4.269945100E+01 -5.641213015E-02
  1.739559600E+01 -1.127053003E-01
  7.438309000E+00 -1.589119704E-01
  3.222862000E+00 -3.355083009E-02
  1.253877000E+00  3.531902810E-01
  4.951550000E-01  5.534199315E-01
  1.916650000E-01  2.301839106E-01
  6.708300000E-02  1.127267003E-02
   s  14
  1.053749500E+05  2.615999981E-05
  1.567924000E+04  1.074799992E-04
  3.534544700E+03  4.597199967E-04
  9.873651600E+02  1.795549987E-03
  3.159787500E+02  6.675739952E-03
  1.116542800E+02  2.053444985E-02
  4.269945100E+01  5.828601958E-02
  1.739559600E+01  1.212969091E-01
  7.438309000E+00  2.264147484E-01
  3.222862000E+00 -4.238699970E-02
  1.253877000E+00 -1.010455373E+00
  4.951550000E-01 -1.538686789E-01
  1.916650000E-01  9.934531929E-01
  6.708300000E-02  1.858725387E-01
   p   9
  2.000000000E+02  9.173000030E-04
  4.653336700E+01  7.377140024E-03
  1.462180900E+01  3.483515011E-02
  5.313064000E+00  1.144397004E-01
  2.102525000E+00  2.554966408E-01
  8.502230000E-01  3.722557412E-01
  3.375970000E-01  3.323314911E-01
  1.288920000E-01  1.400847905E-01
  4.511200000E-02  2.395784008E-02
   p   9
  2.000000000E+02 -8.721300054E-04
  4.653336700E+01 -7.064240043E-03
  1.462180900E+01 -3.330489020E-02
  5.313064000E+00 -1.144127507E-01
  2.102525000E+00 -2.990106818E-01
  8.502230000E-01 -3.198605420E-01
  3.375970000E-01  2.055090013E-01
  1.288920000E-01  5.935926836E-01
  4.511200000E-02  2.822902717E-01
   d   4
  3.750000000E+00  1.360975802E-01
  1.312500000E+00  5.140147507E-01
  4.593750000E-01  4.740712506E-01
  1.607810000E-01  8.166905011E-02
 
   2
   s  14
  5.055750100E+04  1.128874000E-04
  7.524785600E+03  5.295373000E-04
  1.694327600E+03  2.450038300E-03
  4.728227900E+02  1.005398470E-02
  1.517107500E+02  3.545398060E-02
  5.391874600E+01  1.044071086E-01
  2.065931100E+01  2.412894918E-01
  8.383976000E+00  3.834225483E-01
  3.577015000E+00  3.078514393E-01
  1.547118000E+00  6.872442990E-02
  6.130130000E-01  2.224445000E-04
  2.460680000E-01  1.976748900E-03
  9.908700000E-02  2.057859400E-03
  3.468000000E-02  4.182020000E-04
   s  14
  5.055750100E+04 -2.507420000E-05
  7.524785600E+03 -1.175945000E-04
  1.694327600E+03 -5.456275000E-04
  4.728227900E+02 -2.245077100E-03
  1.517107500E+02 -8.043471800E-03
  5.391874600E+01 -2.442588710E-02
  2.065931100E+01 -6.136791180E-02
  8.383976000E+00 -1.177767835E-01
  3.577015000E+00 -1.550487783E-01
  1.547118000E+00 -1.933316860E-02
  6.130130000E-01  3.996930678E-01
  2.460680000E-01  5.589420949E-01
  9.908700000E-02  1.711195023E-01
  3.468000000E-02  7.456244600E-03
   s  14
  5.055750100E+04  1.617880000E-05
  7.524785600E+03  7.497120000E-05
  1.694327600E+03  3.573467000E-04
  4.728227900E+02  1.434931600E-03
  1.517107500E+02  5.508677900E-03
  5.391874600E+01  1.691496900E-02
  2.065931100E+01  5.141665240E-02
  8.383976000E+00  1.137343741E-01
  3.577015000E+00  2.337183944E-01
  1.547118000E+00 -7.183782570E-02
  6.130130000E-01 -1.049090871E+00
  2.460680000E-01 -6.662733990E-02
  9.908700000E-02  1.011999380E+00
  3.468000000E-02  1.656046386E-01
   p   9
  8.333315500E+01  1.344656000E-03
  1.955761100E+01  1.023555500E-02
  6.080365000E+00  4.520067100E-02
  2.179317000E+00  1.410756198E-01
  8.651500000E-01  3.047388085E-01
  3.619440000E-01  3.995281011E-01
  1.547400000E-01  2.719163432E-01
  6.542900000E-02  5.857669330E-02
  2.290000000E-02 -1.263813000E-04
   p   9
  8.333315500E+01 -1.771588500E-03
  1.955761100E+01 -1.456218100E-02
  6.080365000E+00 -5.745733570E-02
  2.179317000E+00 -2.126582848E-01
  8.651500000E-01 -5.271712924E-01
  3.619440000E-01 -9.296977300E-02
  1.547400000E-01  6.630031669E-01
  6.542900000E-02  3.360877793E-01
  2.290000000E-02  5.469524400E-03
   d   4
  1.900000000E+00  1.424518048E-01
  6.650000000E-01  5.591973019E-01
  2.327500000E-01  4.430004380E-01
  8.146300000E-02  4.106653700E-02
 
   3
   s  14
  5.055750100E+04  1.128874000E-04
  7.524785600E+03  5.295373000E-04
  1.694327600E+03  2.450038300E-03
  4.728227900E+02  1.005398470E-02
  1.517107500E+02  3.545398060E-02
  5.391874600E+01  1.044071086E-01
  2.065931100E+01  2.412894918E-01
  8.383976000E+00  3.834225483E-01
  3.577015000E+00  3.078514393E-01
  1.547118000E+00  6.872442990E-02
  6.130130000E-01  2.224445000E-04
  2.460680000E-01  1.976748900E-03
  9.908700000E-02  2.057859400E-03
  3.468000000E-02  4.182020000E-04
   s  14
  5.055750100E+04 -2.507420000E-05
  7.524785600E+03 -1.175945000E-04
  1.694327600E+03 -5.456275000E-04
  4.728227900E+02 -2.245077100E-03
  1.517107500E+02 -8.043471800E-03
  5.391874600E+01 -2.442588710E-02
  2.065931100E+01 -6.136791180E-02
  8.383976000E+00 -1.177767835E-01
  3.577015000E+00 -1.550487783E-01
  1.547118000E+00 -1.933316860E-02
  6.130130000E-01  3.996930678E-01
  2.460680000E-01  5.589420949E-01
  9.908700000E-02  1.711195023E-01
  3.468000000E-02  7.456244600E-03
   s  14
  5.055750100E+04  1.617880000E-05
  7.524785600E+03  7.497120000E-05
  1.694327600E+03  3.573467000E-04
  4.728227900E+02  1.434931600E-03
  1.517107500E+02  5.508677900E-03
  5.391874600E+01  1.691496900E-02
  2.065931100E+01  5.141665240E-02
  8.383976000E+00  1.137343741E-01
  3.577015000E+00  2.337183944E-01
  1.547118000E+00 -7.183782570E-02
  6.130130000E-01 -1.049090871E+00
  2.460680000E-01 -6.662733990E-02
  9.908700000E-02  1.011999380E+00
  3.468000000E-02  1.656046386E-01
   p   9
  8.333315500E+01  1.344656000E-03
  1.955761100E+01  1.023555500E-02
  6.080365000E+00  4.520067100E-02
  2.179317000E+00  1.410756198E-01
  8.651500000E-01  3.047388085E-01
  3.619440000E-01  3.995281011E-01
  1.547400000E-01  2.719163432E-01
  6.542900000E-02  5.857669330E-02
  2.290000000E-02 -1.263813000E-04
   p   9
  8.333315500E+01 -1.771588500E-03
  1.955761100E+01 -1.456218100E-02
  6.080365000E+00 -5.745733570E-02
  2.179317000E+00 -2.126582848E-01
  8.651500000E-01 -5.271712924E-01
  3.619440000E-01 -9.296977300E-02
  1.547400000E-01  6.630031669E-01
  6.542900000E-02  3.360877793E-01
  2.290000000E-02  5.469524400E-03
   d   4
  1.900000000E+00  1.424518048E-01
  6.650000000E-01  5.591973019E-01
  2.327500000E-01  4.430004380E-01
  8.146300000E-02  4.106653700E-02
 
   4
   s  14
  5.055750100E+04  1.128874000E-04
  7.524785600E+03  5.295373000E-04
  1.694327600E+03  2.450038300E-03
  4.728227900E+02  1.005398470E-02
  1.517107500E+02  3.545398060E-02
  5.391874600E+01  1.044071086E-01
  2.065931100E+01  2.412894918E-01
  8.383976000E+00  3.834225483E-01
  3.577015000E+00  3.078514393E-01
  1.547118000E+00  6.872442990E-02
  6.130130000E-01  2.224445000E-04
  2.460680000E-01  1.976748900E-03
  9.908700000E-02  2.057859400E-03
  3.468000000E-02  4.182020000E-04
   s  14
  5.055750100E+04 -2.507420000E-05
  7.524785600E+03 -1.175945000E-04
  1.694327600E+03 -5.456275000E-04
  4.728227900E+02 -2.245077100E-03
  1.517107500E+02 -8.043471800E-03
  5.391874600E+01 -2.442588710E-02
  2.065931100E+01 -6.136791180E-02
  8.383976000E+00 -1.177767835E-01
  3.577015000E+00 -1.550487783E-01
  1.547118000E+00 -1.933316860E-02
  6.130130000E-01  3.996930678E-01
  2.460680000E-01  5.589420949E-01
  9.908700000E-02  1.711195023E-01
  3.468000000E-02  7.456244600E-03
   s  14
  5.055750100E+04  1.617880000E-05
  7.524785600E+03  7.497120000E-05
  1.694327600E+03  3.573467000E-04
  4.728227900E+02  1.434931600E-03
  1.517107500E+02  5.508677900E-03
  5.391874600E+01  1.691496900E-02
  2.065931100E+01  5.141665240E-02
  8.383976000E+00  1.137343741E-01
  3.577015000E+00  2.337183944E-01
  1.547118000E+00 -7.183782570E-02
  6.130130000E-01 -1.049090871E+00
  2.460680000E-01 -6.662733990E-02
  9.908700000E-02  1.011999380E+00
  3.468000000E-02  1.656046386E-01
   p   9
  8.333315500E+01  1.344656000E-03
  1.955761100E+01  1.023555500E-02
  6.080365000E+00  4.520067100E-02
  2.179317000E+00  1.410756198E-01
  8.651500000E-01  3.047388085E-01
  3.619440000E-01  3.995281011E-01
  1.547400000E-01  2.719163432E-01
  6.542900000E-02  5.857669330E-02
  2.290000000E-02 -1.263813000E-04
   p   9
  8.333315500E+01 -1.771588500E-03
  1.955761100E+01 -1.456218100E-02
  6.080365000E+00 -5.745733570E-02
  2.179317000E+00 -2.126582848E-01
  8.651500000E-01 -5.271712924E-01
  3.619440000E-01 -9.296977300E-02
  1.547400000E-01  6.630031669E-01
  6.542900000E-02  3.360877793E-01
  2.290000000E-02  5.469524400E-03
   d   4
  1.900000000E+00  1.424518048E-01
  6.650000000E-01  5.591973019E-01
  2.327500000E-01  4.430004380E-01
  8.146300000E-02  4.106653700E-02
 
   5
   s   8
  1.886144500E+02  9.638500027E-04
  2.827659600E+01  7.491960021E-03
  6.424830000E+00  3.759541011E-02
  1.815041000E+00  1.433949804E-01
  5.910630000E-01  3.486363010E-01
  2.121490000E-01  4.382973612E-01
  7.989100000E-02  1.651066105E-01
  2.796200000E-02  2.102287006E-02
   s   8
  1.886144500E+02 -1.311899994E-03
  2.827659600E+01 -1.034509996E-02
  6.424830000E+00 -5.049529978E-02
  1.815041000E+00 -2.073854991E-01
  5.910630000E-01 -4.350884981E-01
  2.121490000E-01 -2.472969989E-02
  7.989100000E-02  3.225259886E-01
  2.796200000E-02  7.072753770E-01
   p   4
  2.305000000E+00  1.127901896E-01
  8.067500000E-01  4.185075284E-01
  2.823620000E-01  4.700077282E-01
  9.882700000E-02  1.826260293E-01
 
   6
   s   8
  1.886144500E+02  9.638500027E-04
  2.827659600E+01  7.491960021E-03
  6.424830000E+00  3.759541011E-02
  1.815041000E+00  1.433949804E-01
  5.910630000E-01  3.486363010E-01
  2.121490000E-01  4.382973612E-01
  7.989100000E-02  1.651066105E-01
  2.796200000E-02  2.102287006E-02
   s   8
  1.886144500E+02 -1.311899994E-03
  2.827659600E+01 -1.034509996E-02
  6.424830000E+00 -5.049529978E-02
  1.815041000E+00 -2.073854991E-01
  5.910630000E-01 -4.350884981E-01
  2.121490000E-01 -2.472969989E-02
  7.989100000E-02  3.225259886E-01
  2.796200000E-02  7.072753770E-01
   p   4
  2.305000000E+00  1.127901896E-01
  8.067500000E-01  4.185075284E-01
  2.823620000E-01  4.700077282E-01
  9.882700000E-02  1.826260293E-01
 
   7
   s   8
  1.886144500E+02  9.638500027E-04
  2.827659600E+01  7.491960021E-03
  6.424830000E+00  3.759541011E-02
  1.815041000E+00  1.433949804E-01
  5.910630000E-01  3.486363010E-01
  2.121490000E-01  4.382973612E-01
  7.989100000E-02  1.651066105E-01
  2.796200000E-02  2.102287006E-02
   s   8
  1.886144500E+02 -1.311899994E-03
  2.827659600E+01 -1.034509996E-02
  6.424830000E+00 -5.049529978E-02
  1.815041000E+00 -2.073854991E-01
  5.910630000E-01 -4.350884981E-01
  2.121490000E-01 -2.472969989E-02
  7.989100000E-02  3.225259886E-01
  2.796200000E-02  7.072753770E-01
   p   4
  2.305000000E+00  1.127901896E-01
  8.067500000E-01  4.185075284E-01
  2.823620000E-01  4.700077282E-01
  9.882700000E-02  1.826260293E-01
 
   8
   s   8
  1.886144500E+02  9.638500027E-04
  2.827659600E+01  7.491960021E-03
  6.424830000E+00  3.759541011E-02
  1.815041000E+00  1.433949804E-01
  5.910630000E-01  3.486363010E-01
  2.121490000E-01  4.382973612E-01
  7.989100000E-02  1.651066105E-01
  2.796200000E-02  2.102287006E-02
   s   8
  1.886144500E+02 -1.311899994E-03
  2.827659600E+01 -1.034509996E-02
  6.424830000E+00 -5.049529978E-02
  1.815041000E+00 -2.073854991E-01
  5.910630000E-01 -4.350884981E-01
  2.121490000E-01 -2.472969989E-02
  7.989100000E-02  3.225259886E-01
  2.796200000E-02  7.072753770E-01
   p   4
  2.305000000E+00  1.127901896E-01
  8.067500000E-01  4.185075284E-01
  2.823620000E-01  4.700077282E-01
  9.882700000E-02  1.826260293E-01
 
[MO]
Sym=     1a' 
Ene=   -20.6860
Spin= Alpha
Occup=    2.00000
   1         0.99989922
   2         0.00005471
   3        -0.00000000
   4         0.00000000
   5         0.00001066
   6         0.00002027
   7         0.00000000
   8         0.00000000
   9        -0.00000000
  10        -0.00000000
  11         0.00000000
  12         0.00000000
  13         0.00000000
  14         0.00000000
  15         0.00033874
  16         0.00106514
  17         0.00000000
  18         0.00000000
  19        -0.00054357
  20        -0.00105550
  21         0.00000000
  22         0.00000000
  23        -0.00000000
  24        -0.00000000
  25         0.00000000
  26         0.00000000
  27         0.00000000
  28         0.00000000
  29         0.00004149
  30         0.00007720
  31         0.00000000
  32         0.00000000
  33        -0.00010833
  34        -0.00006771
  35         0.00000000
  36         0.00000000
  37         0.00000000
  38         0.00000000
  39         0.00000000
  40         0.00000000
  41        -0.00000000
  42         0.00000000
  43        -0.00000557
  44         0.00000373
  45        -0.00000000
  46         0.00000000
  47        -0.00000820
  48        -0.00000817
  49         0.00000000
  50         0.00000000
  51         0.00000000
  52         0.00000000
  53         0.00000000
  54        -0.00000000
  55        -0.00000000
  56         0.00000000
  57         0.00013124
  58         0.00000000
  59         0.00000000
  60         0.00000000
  61         0.00000000
  62         0.00004731
  63         0.00000000
  64         0.00000000
  65        -0.00000000
  66        -0.00000000
  67         0.00000516
  68        -0.00000000
  69         0.00000000
  70        -0.00000000
  71         0.00000000
  72         0.00000182
  73        -0.00000000
  74         0.00000000
  75         0.00000000
  76        -0.00000000
Sym=     2a' 
Ene=   -11.3460
Spin= Alpha
Occup=    2.00000
   1        -0.00035557
   2         0.00179928
   3        -0.00000000
   4         0.00000000
   5         0.00107086
   6         0.00171656
   7         0.00000000
   8         0.00000000
   9         0.00000000
  10        -0.00000000
  11         0.00000000
  12         0.00000000
  13         0.00000000
  14         0.00000000
  15         0.46766100
  16         0.00178730
  17        -0.00000000
  18         0.00000000
  19         0.00182057
  20         0.00024132
  21         0.00000000
  22        -0.00000000
  23         0.00000000
  24         0.00000000
  25         0.00000000
  26         0.00000000
  27         0.00000000
  28         0.00000000
  29         0.68697422
  30         0.00281856
  31         0.00000000
  32         0.00000000
  33        -0.00042480
  34         0.00148753
  35         0.00000000
  36        -0.00000000
  37         0.00000000
  38        -0.00000000
  39         0.00000000
  40         0.00000000
  41         0.00000000
  42         0.00000000
  43         0.55378915
  44         0.00228085
  45        -0.00000000
  46         0.00000000
  47        -0.00102619
  48        -0.00203697
  49         0.00000000
  50         0.00000000
  51         0.00000000
  52         0.00000000
  53         0.00000000
  54        -0.00000000
  55         0.00000000
  56         0.00000000
  57         0.00172823
  58        -0.00000000
  59         0.00000000
  60         0.00000000
  61         0.00000000
  62         0.00245970
  63         0.00000000
  64         0.00000000
  65        -0.00000000
  66        -0.00000000
  67         0.00206050
  68        -0.00000000
  69         0.00000000
  70         0.00000000
  71        -0.00000000
  72         0.00197049
  73        -0.00000000
  74         0.00000000
  75         0.00000000
  76        -0.00000000
Sym=     3a' 
Ene=   -11.3350
Spin= Alpha
Occup=    2.00000
   1         0.00053782
   2        -0.00276491
   3        -0.00000000
   4         0.00000000
   5        -0.00130408
   6        -0.00255755
   7         0.00000000
   8         0.00000000
   9         0.00000000
  10        -0.00000000
  11         0.00000000
  12         0.00000000
  13        -0.00000000
  14         0.00000000
  15        -0.77674845
  16        -0.00005733
  17         0.00000000
  18         0.00000000
  19         0.00026860
  20         0.00017740
  21         0.00000000
  22         0.00000000
  23         0.00000000
  24        -0.00000000
  25         0.00000000
  26        -0.00000000
  27         0.00000000
  28         0.00000000
  29         0.02226972
  30         0.00014326
  31        -0.00000000
  32         0.00000000
  33         0.00262891
  34         0.00189371
  35         0.00000000
  36        -0.00000000
  37        -0.00000000
  38        -0.00000000
  39         0.00000000
  40        -0.00000000
  41         0.00000000
  42         0.00000000
  43         0.62833797
  44         0.00006960
  45         0.00000000
  46         0.00000000
  47         0.00023240
  48         0.00008796
  49         0.00000000
  50        -0.00000000
  51        -0.00000000
  52         0.00000000
  53         0.00000000
  54         0.00000000
  55         0.00000000
  56         0.00000000
  57        -0.00212503
  58        -0.00000000
  59         0.00000000
  60        -0.00000000
  61         0.00000000
  62         0.00003992
  63        -0.00000000
  64         0.00000000
  65        -0.00000000
  66        -0.00000000
  67         0.00174048
  68         0.00000000
  69         0.00000000
  70         0.00000000
  71        -0.00000000
  72         0.00185771
  73        -0.00000000
  74         0.00000000
  75         0.00000000
  76         0.00000000
Sym=     4a' 
Ene=   -11.3270
Spin= Alpha
Occup=    2.00000
   1        -0.00020708
   2         0.00135681
   3         0.00000000
   4         0.00000000
   5         0.00048036
   6         0.00127129
   7         0.00000000
   8        -0.00000000
   9        -0.00000000
  10         0.00000000
  11         0.00000000
  12         0.00000000
  13         0.00000000
  14         0.00000000
  15         0.42005057
  16        -0.00123434
  17         0.00000000
  18         0.00000000
  19        -0.00155140
  20        -0.00001315
  21         0.00000000
  22         0.00000000
  23        -0.00000000
  24         0.00000000
  25         0.00000000
  26         0.00000000
  27        -0.00000000
  28         0.00000000
  29        -0.72525517
  30         0.00217056
  31         0.00000000
  32         0.00000000
  33        -0.00032650
  34         0.00143608
  35         0.00000000
  36         0.00000000
  37         0.00000000
  38         0.00000000
  39         0.00000000
  40         0.00000000
  41        -0.00000000
  42         0.00000000
  43         0.54495926
  44        -0.00174657
  45        -0.00000000
  46         0.00000000
  47         0.00075094
  48         0.00192534
  49         0.00000000
  50         0.00000000
  51         0.00000000
  52        -0.00000000
  53         0.00000000
  54         0.00000000
  55        -0.00000000
  56         0.00000000
  57         0.00105732
  58         0.00000000
  59         0.00000000
  60         0.00000000
  61        -0.00000000
  62        -0.00181361
  63         0.00000000
  64         0.00000000
  65         0.00000000
  66         0.00000000
  67         0.00139691
  68        -0.00000000
  69         0.00000000
  70        -0.00000000
  71        -0.00000000
  72         0.00133648
  73         0.00000000
  74         0.00000000
  75        -0.00000000
  76        -0.00000000
Sym=     5a' 
Ene=    -1.5646
Spin= Alpha
Occup=    2.00000
   1        -0.01618821
   2         0.60627381
   3        -0.00000000
   4         0.00000000
   5         0.06238438
   6         0.09668302
   7         0.00000000
   8        -0.00000000
   9        -0.00000000
  10         0.00000000
  11         0.00000000
  12        -0.00000000
  13         0.00000000
  14         0.00000000
  15        -0.04958591
  16         0.33055645
  17        -0.00000000
  18         0.00000000
  19        -0.00721055
  20        -0.06901091
  21         0.00000000
  22        -0.00000000
  23        -0.00000000
  24         0.00000000
  25         0.00000000
  26         0.00000000
  27         0.00000000
  28         0.00000000
  29        -0.03113760
  30         0.22096088
  31         0.00000000
  32         0.00000000
  33        -0.05206837
  34        -0.00103252
  35         0.00000000
  36        -0.00000000
  37         0.00000000
  38         0.00000000
  39         0.00000000
  40         0.00000000
  41        -0.00000000
  42         0.00000000
  43        -0.01853686
  44         0.13362302
  45        -0.00000000
  46         0.00000000
  47        -0.03264935
  48        -0.03410448
  49         0.00000000
  50         0.00000000
  51         0.00000000
  52        -0.00000000
  53         0.00000000
  54        -0.00000000
  55         0.00000000
  56         0.00000000
  57         0.11331201
  58         0.00000000
  59         0.00000000
  60         0.00000000
  61         0.00000000
  62         0.08616105
  63        -0.00000000
  64         0.00000000
  65         0.00000000
  66        -0.00000000
  67         0.06029484
  68        -0.00000000
  69         0.00000000
  70        -0.00000000
  71         0.00000000
  72         0.04288706
  73         0.00000000
  74         0.00000000
  75         0.00000000
  76         0.00000000
Sym=     6a' 
Ene=    -1.3626
Spin= Alpha
Occup=    2.00000
   1         0.00787910
   2        -0.45733990
   3         0.00000000
   4         0.00000000
   5         0.02041167
   6        -0.01063331
   7         0.00000000
   8        -0.00000000
   9         0.00000000
  10         0.00000000
  11         0.00000000
  12        -0.00000000
  13         0.00000000
  14         0.00000000
  15         0.00029053
  16         0.01704452
  17         0.00000000
  18         0.00000000
  19         0.11960522
  20         0.11324906
  21         0.00000000
  22         0.00000000
  23         0.00000000
  24        -0.00000000
  25         0.00000000
  26        -0.00000000
  27        -0.00000000
  28         0.00000000
  29        -0.04284965
  30         0.32234961
  31        -0.00000000
  32         0.00000000
  33         0.04502324
  34         0.09057194
  35         0.00000000
  36        -0.00000000
  37        -0.00000000
  38        -0.00000000
  39         0.00000000
  40        -0.00000000
  41         0.00000000
  42         0.00000000
  43        -0.04891019
  44         0.37408383
  45         0.00000000
  46         0.00000000
  47        -0.02861095
  48        -0.05145169
  49         0.00000000
  50        -0.00000000
  51        -0.00000000
  52         0.00000000
  53         0.00000000
  54         0.00000000
  55         0.00000000
  56         0.00000000
  57         0.04106954
  58        -0.00000000
  59         0.00000000
  60        -0.00000000
  61        -0.00000000
  62         0.11604037
  63        -0.00000000
  64         0.00000000
  65         0.00000000
  66         0.00000000
  67         0.15760608
  68         0.00000000
  69         0.00000000
  70         0.00000000
  71        -0.00000000
  72         0.15020330
  73        -0.00000000
  74         0.00000000
  75         0.00000000
  76         0.00000000
Sym=     7a' 
Ene=    -1.0060
Spin= Alpha
Occup=    2.00000
   1         0.00477782
   2         0.42594151
   3        -0.00000000
   4         0.00000000
   5        -0.12304082
   6        -0.17554031
   7         0.00000000
   8        -0.00000000
   9        -0.00000000
  10        -0.00000000
  11         0.00000000
  12         0.00000000
  13         0.00000000
  14         0.00000000
  15         0.03089585
  16        -0.31910907
  17         0.00000000
  18         0.00000000
  19        -0.08785125
  20        -0.10699691
  21         0.00000000
  22        -0.00000000
  23        -0.00000000
  24         0.00000000
  25         0.00000000
  26         0.00000000
  27        -0.00000000
  28         0.00000000
  29         0.01539921
  30        -0.15581620
  31        -0.00000000
  32         0.00000000
  33         0.18617023
  34         0.09533976
  35         0.00000000
  36         0.00000000
  37         0.00000000
  38         0.00000000
  39         0.00000000
  40         0.00000000
  41         0.00000000
  42         0.00000000
  43        -0.02960685
  44         0.33420648
  45        -0.00000000
  46         0.00000000
  47         0.14061532
  48         0.08376082
  49         0.00000000
  50         0.00000000
  51        -0.00000000
  52        -0.00000000
  53         0.00000000
  54         0.00000000
  55        -0.00000000
  56         0.00000000
  57        -0.17659840
  58        -0.00000000
  59         0.00000000
  60        -0.00000000
  61         0.00000000
  62        -0.05759665
  63         0.00000000
  64         0.00000000
  65        -0.00000000
  66        -0.00000000
  67         0.13655957
  68         0.00000000
  69         0.00000000
  70         0.00000000
  71        -0.00000000
  72         0.25167543
  73        -0.00000000
  74         0.00000000
  75         0.00000000
  76         0.00000000
Sym=     8a' 
Ene=    -0.9674
Spin= Alpha
Occup=    2.00000
   1        -0.00046401
   2        -0.07622284
   3         0.00000000
   4         0.00000000
   5        -0.13747914
   6         0.15962430
   7         0.00000000
   8         0.00000000
   9         0.00000000
  10         0.00000000
  11         0.00000000
  12         0.00000000
  13        -0.00000000
  14         0.00000000
  15        -0.01646431
  16         0.16969718
  17        -0.00000000
  18         0.00000000
  19        -0.16297050
  20         0.18274811
  21         0.00000000
  22        -0.00000000
  23        -0.00000000
  24        -0.00000000
  25         0.00000000
  26         0.00000000
  27         0.00000000
  28         0.00000000
  29         0.02625215
  30        -0.28932347
  31         0.00000000
  32         0.00000000
  33        -0.13381397
  34         0.21239490
  35         0.00000000
  36        -0.00000000
  37        -0.00000000
  38        -0.00000000
  39         0.00000000
  40        -0.00000000
  41        -0.00000000
  42         0.00000000
  43        -0.01286816
  44         0.12924791
  45         0.00000000
  46         0.00000000
  47        -0.09246868
  48         0.18427215
  49         0.00000000
  50         0.00000000
  51        -0.00000000
  52         0.00000000
  53         0.00000000
  54         0.00000000
  55        -0.00000000
  56         0.00000000
  57         0.24950269
  58         0.00000000
  59         0.00000000
  60         0.00000000
  61        -0.00000000
  62        -0.30238315
  63         0.00000000
  64         0.00000000
  65        -0.00000000
  66        -0.00000000
  67         0.20979200
  68         0.00000000
  69         0.00000000
  70         0.00000000
  71         0.00000000
  72         0.01631887
  73        -0.00000000
  74         0.00000000
  75         0.00000000
  76         0.00000000
Sym=     9a' 
Ene=    -0.7506
Spin= Alpha
Occup=    2.00000
   1        -0.00988914
   2        -0.20308837
   3        -0.00000000
   4         0.00000000
   5        -0.15350674
   6         0.46609588
   7         0.00000000
   8         0.00000000
   9         0.00000000
  10         0.00000000
  11         0.00000000
  12         0.00000000
  13         0.00000000
  14         0.00000000
  15        -0.00982954
  16         0.11355399
  17         0.00000000
  18         0.00000000
  19        -0.26926995
  20         0.01453348
  21         0.00000000
  22         0.00000000
  23        -0.00000000
  24        -0.00000000
  25         0.00000000
  26         0.00000000
  27        -0.00000000
  28         0.00000000
  29         0.00669976
  30        -0.06111682
  31        -0.00000000
  32         0.00000000
  33         0.21397188
  34        -0.10903666
  35         0.00000000
  36         0.00000000
  37         0.00000000
  38         0.00000000
  39         0.00000000
  40         0.00000000
  41         0.00000000
  42         0.00000000
  43         0.00100529
  44        -0.01100159
  45        -0.00000000
  46         0.00000000
  47         0.34228107
  48        -0.10353679
  49         0.00000000
  50         0.00000000
  51         0.00000000
  52        -0.00000000
  53         0.00000000
  54         0.00000000
  55         0.00000000
  56         0.00000000
  57         0.15018049
  58        -0.00000000
  59         0.00000000
  60        -0.00000000
  61         0.00000000
  62         0.12637752
  63        -0.00000000
  64         0.00000000
  65        -0.00000000
  66        -0.00000000
  67        -0.21749286
  68        -0.00000000
  69         0.00000000
  70         0.00000000
  71        -0.00000000
  72         0.25702414
  73        -0.00000000
  74         0.00000000
  75         0.00000000
  76        -0.00000000
Sym=    10a' 
Ene=    -0.7142
Spin= Alpha
Occup=    2.00000