   This run of MOLCAS is using the pymolcas driver

                             OPE
                             OPE          NMOL  CASOP  ENMOLC A   SO
                 OPE        NMOLC        AS  OP EN  MO LC     AS  OP
                OPENM       OL CA        SO  PE NM  OL CA     SOP EN
                OP EN      MO   LC       AS  OP ENMOL  CASO   PENMOL
                OP  EN     MO   LC       AS  OP EN     MO     LC ASO
               OP   E  NMOL  C  AS       OP  EN MO     LC     AS  OP
               OP  E   NMO   LC AS        OPEN  MO     LCASOP EN   M
               O  PEN   MO  LCA  SO
            OPE   NMO   L   CAS    OP
        OPENMOL  CASOP     ENMOL   CASOPE
     OPENMOLCA   SOPENMOLCASOPEN   MOLCASOPE
    OPENMOLCAS   OP           EN   MOL    CAS
    OPENMOLCAS       OP  ENM        O     LCA
    OPENMOLCAS    OPEN  MOLCASO     P  E  NMO
    OPENMOLCAS     OP               E  N  MOL
    OPENMOLCA   SO           PENM   O  L  CAS    OPEN    MO    LCAS
    OPENMOLCA   SOP           ENM   O  L  CAS   OP  EN  MOLC  AS   O
    OPENMOLCA   SOPE           NM      O  LCA   S      OP  EN MO
    OPENMOLC                AS         O  PEN   M      OL  CA  SOPE
    OPENMO        LCASOPE  NMOL        C  ASO   P      ENMOLC     AS
    OPE     NMO      LCA  SO     P     E   NM   OL  CA SO  PE N   MO
          OPENMOLCA            SOPE   NMO        LCAS  O    P  ENMO
     OPENMOLCASOPENMOLCASOPENMOLCASOPENMOLCA
        OPENMOLCASOPENMOLCASOPENMOLCASOPE
            OPENMOLCASOPENMOLCASOPENM
               OPENMOLCASOPENMOLCA        version: v25.02 ?
                   OPENMOLCASO
                       OPE                tag:

 OpenMolcas is free software; you can redistribute it and/or modify it
 under the terms of the GNU Lesser General Public License version 2.1.
 OpenMolcas is distributed in the hope that it will be useful, but it
 is provided "as is" and without any express or implied warranties.
 For more details see the full text of the license in the file
 LICENSE or in <http://www.gnu.org/licenses/>.

                 Copyright (C) The OpenMolcas Authors
           For the author list and the recommended citation,
                   consult the file CONTRIBUTORS.md

           *************************************************
           * pymolcas version py2.29                       *
           *   build c0481229b6f3f65ed2c83878be511d3d      *
           *   (after the EMIL interpreter by V. Veryazov) *
           *************************************************

configuration info
------------------
Host name: bcb11747ffd6 (Linux)
C Compiler ID: IntelLLVM
C flags: -std=gnu99 -qopenmp
Fortran Compiler ID: IntelLLVM
Fortran flags: -standard-semantics -fltconsistency -fpp -i8 -heap-arrays -qopenmp
Definitions: _MOLCAS_;_I8_;_LINUX_;_MOLCAS_MPP_;_SCALAPACK_;_GA_
Parallel: ON (GA=ON)


   --------------------------------------------------------------
  |
  |           Project: pbo
  |    Submitted from: /home/charlie/input_examples/molcas/pbo-so
  |      Scratch area: /home/charlie/molcastmp/pbo
  |   Save outputs to: /home/charlie/input_examples/molcas/pbo-so
  |            Molcas: /apps/openmolcas
  |
  | Scratch area is empty
  |
  |    MOLCAS_DRIVER = /apps/openmolcas/pymolcas
  |    MOLCAS_NPROCS = 1
  |    MOLCAS_SOURCE = /apps/openmolcas
  | MOLCAS_STRUCTURE = 0
  |
   --------------------------------------------------------------

++ ---------   Input file   ---------

&GATEWAY
  Title= PbO
  Coord= $CurrDir/PbO.xyz
  Basis set
  ANO-RCC-VQZP
  Group= XY
  AngMom
 0.00  0.00  0.00
End of Input

&SEWARD
End of Input

&SCF
  Title
  PbO
  Occupied
    24 21
  Iterations
    20
  Prorbitals
    2 1.d+10
End of Input

&RASSCF
  Title
  PbO
  Symmetry
    1
  Spin
    5
  CIROOT
    5 5 1
  nActEl
    8 0 0
  Inactive
    23 18
  Ras2
    3 4
  Lumorb
  THRS
    1.0e-8 1.0e-04 1.0e-04
  Levshft
    1.50
  ITERation
    200 50
  CIMX
    200
  SDAV
    500
End of Input

&CASPT2
  Title
  PbO
  MAXITER
    25
  FROZEN
    19 16
  Focktype
  G1
  Multistate
    5 1 2 3 4 5
  Imaginary Shift
    0.1
End of Input

-- ----------------------------------

--- Start Module: gateway at Sun Dec  7 11:48:51 2025 ---
 
()()()()()()()()()()()()()()()()()()()()()()()()()()()()()()()()()()()()()()()()()()()()()()()()()()

                                              &GATEWAY

                       only a single process is used, running in SERIAL mode
                       available to each process: 2.0 GB of memory, 1 thread
                                            pid: 3106293
()()()()()()()()()()()()()()()()()()()()()()()()()()()()()()()()()()()()()()()()()()()()()()()()()()
 
 
 Title:
                                              PbO                                       
 
 
++    Symmetry information:
      ---------------------
 
                    --- Group Generators ---
                    Rotation around the z-axis  
 
                    Character Table for C2 
 
                             E   C2(z)
                    a        1     1  xy, Rz, z, I
                    b        1    -1  x, y, xz, Ry, yz, Rx
--
 
 
++    Basis set information:
      ----------------------
 
 
      Basis set label: PB.ANO-RCC...9S8P6D4F3G.
 
      Electronic valence basis set:
      ------------------
      Associated Effective Charge  82.000000 au
      Associated Actual Charge     82.000000 au
      Nuclear Model: Point charge
 
      Shell  nPrim  nBasis  Cartesian Spherical Contaminant
         s      25       9        X                  
         p      22       8        X                  
         d      16       6                 X         
         f      12       4                 X         
         g       4       3                 X         
 
 
      Basis set label: O.ANO-RCC...5S4P3D2F1G.
 
      Electronic valence basis set:
      ------------------
      Associated Effective Charge   8.000000 au
      Associated Actual Charge      8.000000 au
      Nuclear Model: Point charge
 
      Shell  nPrim  nBasis  Cartesian Spherical Contaminant
         s      14       5        X                  
         p       9       4        X                  
         d       4       3                 X         
         f       3       2                 X         
         g       2       1                 X         
--
 
 
++    Molecular structure info:
      -------------------------
 
                    ************************************************ 
                    **** Cartesian Coordinates / bohr, angstrom **** 
                    ************************************************ 
 
     Center  Label                x              y              z                     x              y              z
        1      PB1              0.000000       0.000000       0.000000              0.000000       0.000000       0.000000
        2      O2               0.000000       0.000000       2.267671              0.000000       0.000000       1.200000
--
 
 
            Nuclear Potential Energy            289.28354176 au
 
--- Stop Module: gateway at Sun Dec  7 11:48:52 2025 /rc=_RC_ALL_IS_WELL_ ---
*** files: xmldump
    saved to directory /home/charlie/input_examples/molcas/pbo-so

--- Start Module: seward at Sun Dec  7 11:48:52 2025 ---
 
()()()()()()()()()()()()()()()()()()()()()()()()()()()()()()()()()()()()()()()()()()()()()()()()()()

                                              &SEWARD

                       only a single process is used, running in SERIAL mode
                       available to each process: 2.0 GB of memory, 1 thread
                                            pid: 3106296
()()()()()()()()()()()()()()()()()()()()()()()()()()()()()()()()()()()()()()()()()()()()()()()()()()
 
               SEWARD will generate:
                  Multipole Moment integrals up to order  2
                  Kinetic Energy integrals
                  Nuclear Attraction integrals (point charge)
                  One-Electron Hamiltonian integrals
                  Velocity integrals
                  Relativistic Douglas-Kroll-Hess integrals:
                    - Parametrization         : EXP
                    - DKH order of Hamiltonian: 2
                    - DKH order of Properties : 0
                         - multipole moment operators
                         - electric potential operators
                         - contact operators
                  Orbital angular momentum around ( 0.0000  0.0000  0.0000 )
                  Velocity quadrupole around ( 0.0000  0.0000  0.1619 )
                  Atomic mean-field integrals
                  Two-Electron Repulsion integrals
 
 Title:
                                              PbO                                       
 
 
                   Integrals are discarded if absolute value <: 1.00E-14
                   Integral cutoff threshold is set to       <: 1.00E-16
 
                    Unitary symmetry adaptation
 
 
            Nuclear Potential Energy            289.28354176 au
 
 
      Basis set specifications :
      Symmetry species         a    b  
      Basis functions           91   82
 
 
      Input file to MOLDEN was generated!
 
--- Stop Module: seward at Sun Dec  7 11:49:14 2025 /rc=_RC_ALL_IS_WELL_ ---
*** files: pbo.GssOrb pbo.guessorb.molden xmldump
    saved to directory /home/charlie/input_examples/molcas/pbo-so
--- Module seward spent 22 seconds ---

*** symbolic link created: INPORB -> pbo.GssOrb
--- Start Module: scf at Sun Dec  7 11:49:14 2025 ---
 
()()()()()()()()()()()()()()()()()()()()()()()()()()()()()()()()()()()()()()()()()()()()()()()()()()

                                                &SCF

                       only a single process is used, running in SERIAL mode
                       available to each process: 2.0 GB of memory, 1 thread
                                            pid: 3106299
()()()()()()()()()()()()()()()()()()()()()()()()()()()()()()()()()()()()()()()()()()()()()()()()()()
 
++    Input section:
      --------------
 
      Header of the integral files:
      
       Integrals generated by Gateway/Seward, Sun Dec  7 11:48:52 2025
 
       Title:
        PbO
 
      Cartesian coordinates in angstrom:
      -----------------------------------------------------
      No.  Label        X            Y            Z        
      -----------------------------------------------------
       1   PB1        0.00000000   0.00000000   0.00000000
       2   O2         0.00000000   0.00000000   1.20000000
      -----------------------------------------------------
      Nuclear repulsion energy =  289.28354176
--
 
++    Orbital specifications:
      -----------------------
 
      Symmetry species               1   2
                                     a   b
      Frozen orbitals                0   0
      Occupied orbitals             24  21
      Secondary orbitals            67  61
      Deleted orbitals               0   0
      Total number of orbitals      91  82
      Number of basis functions     91  82
--
 
      Molecular charge                           0.000
 
++    Optimization specifications:
      ----------------------------
 
      SCF Algorithm: Conventional
      Minimized density differences are used
      Number of density matrices in core                 5
      Maximum number of NDDO SCF iterations             20
      Maximum number of HF SCF iterations               20
      Threshold for SCF energy change             1.00E-09
      Threshold for density matrix                1.00E-04
      Threshold for Fock matrix                   1.50E-04
      Threshold for linear dependence             1.00E-09
      Threshold at which DIIS is turned on        1.50E-01
      Maximum depth in the DIIS procedure                5
      Maximum depth in the BFGS Hessian update          30
      Threshold at which QNR/C2DIIS is turned on  7.50E-02
      Threshold for Norm(delta) (QNR/C2DIIS)      1.00E-03
      All orbitals punched on: SCFORB
--
 
      Detected guessorb starting orbitals                                             
 
 
++ Convergence information
                                   SCF        iterations: Energy and convergence statistics
 
Iter     Tot. SCF        One-elec.       Two-elec.     Energy      Max Dij or  Max Fij      DNorm      TNorm      AccCon     Time
         Energy          Energy          Energy        Change      Delta Norm                                                in Sec.
 
 The total and one-electron energies are shifted by a value of     20000. a.u.
 
   1  -934.667802870 -9211.713100465  7987.761755831   0.00E+00    2.30E-01*   2.06E-01*    1.39E+01   1.52E+03   None         0.
   2  -935.171126679 -9232.977949164  8008.523280721  -5.03E-01*   1.73E-01*   5.41E-02*    2.35E+00   1.52E+03   EDIIS        0.
   3  -935.202889653 -9213.389101538  7988.902670121  -3.18E-02*   8.30E-02*   3.68E-02*    1.08E+00   1.52E+03   EDIIS        0.
   4  -935.214731201 -9226.754329769  8002.256056803  -1.18E-02*   4.08E-02*   2.31E-02*    3.88E-01   1.52E+03   c2DIIS       0.
   5  -935.228523573 -9221.928844994  7997.416779656  -1.38E-02*   1.48E-02*   5.72E-03*    9.58E-02   1.52E+03   QNRc2DIIS    0.
   6  -935.228880011 -9221.176862326  7996.664440552  -3.56E-04*   1.13E-02*   6.02E-03*    3.53E-02   1.52E+03   QNRc2DIIS    0.
   7  -935.229131323 -9221.291357734  7996.778684647  -2.51E-04*   5.53E-03*   1.49E-03*    1.60E-02   1.52E+03   QNRc2DIIS    0.
   8  -935.229157751 -9221.533071645  7997.020372131  -2.64E-05*   1.91E-03*   4.26E-04*    7.26E-03   1.52E+03   QNRc2DIIS    0.
   9  -935.229160973 -9221.366676285  7996.853973548  -3.22E-06*   6.75E-04    2.63E-04*    1.58E-03   1.52E+03   QNRc2DIIS    0.
  10  -935.229161839 -9221.447321594  7996.934617990  -8.67E-07*   1.14E-04    8.48E-05     6.17E-04   1.52E+03   QNRc2DIIS    0.
  11  -935.229161876 -9221.438781825  7996.926078185  -3.71E-08*   3.38E-05    1.82E-05     3.08E-04   1.52E+03   QNRc2DIIS    0.
  12  -935.229161880 -9221.439115681  7996.926412037  -3.75E-09*   1.18E-05    2.00E-06     5.68E-05   1.52E+03   QNRc2DIIS    0.
  13  -935.229161880 -9221.439144062  7996.926440417  -1.75E-10    2.09E-06    6.44E-07     7.42E-05   1.52E+03   QNRc2DIIS    0.
 
       Convergence after  13 Macro Iterations
--
 
 *****************************************************************************************************************************
 *                                                                                                                           *
 *                                             SCF/KS-DFT Program, Final results                                             *
 *                                                                                                                           *
 *                                                                                                                           *
 *                                                                                                                           *
 *                                                       Final Results                                                       *
 *                                                                                                                           *
 *****************************************************************************************************************************
 
::    Total SCF energy                             -20935.2291618804
      One-electron energy                          -29221.4391440616
      Two-electron energy                            7996.9264404172
      Nuclear repulsion energy                        289.2835417641
      Kinetic energy (interpolated)                 32543.5712790569
      Virial theorem                                    0.6432984562
      Total spin, S(S+1)                                0.0000000000
      Total spin, S                                     0.0000000000
      Max non-diagonal density matrix element           0.0000022117
      Max non-diagonal Fock matrix element              0.0000001250
 
 
      All orbitals with orbital energies smaller than 1.0000E+10 are printed
 
++    Molecular orbitals:
      -------------------
 
      Title: SCF orbitals

      Molecular orbitals for symmetry species 1: a  
 
          Some orbital energies have been scaled by powers of 10, the power is written right after the orbital index
 
 
          Orbital            1 (1)     2         3         4         5         6         7         8         9        10    
          Energy         -324.4083 -586.7071 -506.4862 -143.6315 -120.1077  -94.6390  -94.6356  -94.6350  -34.0686  -26.1888
          Occ. No.          2.0000    2.0000    2.0000    2.0000    2.0000    2.0000    2.0000    2.0000    2.0000    2.0000
 
        1 PB1    1s         1.0000   -0.0000    0.0000    0.0000   -0.0000   -0.0000   -0.0000    0.0000    0.0000    0.0000
        2 PB1    2s        -0.0000    1.0000    0.0000    0.0000   -0.0000   -0.0000   -0.0000    0.0000    0.0000    0.0001
        3 PB1    3s        -0.0000   -0.0000    0.0000    1.0000   -0.0001   -0.0001   -0.0000    0.0001    0.0001    0.0003
        4 PB1    4s        -0.0000   -0.0000    0.0000    0.0001   -0.0000   -0.0001   -0.0000    0.0000    1.0004   -0.0006
        5 PB1    5s        -0.0000   -0.0000    0.0001    0.0001   -0.0001   -0.0003   -0.0000    0.0001    0.0009    0.0029
        6 PB1    6s         0.0000    0.0000    0.0001   -0.0002   -0.0001   -0.0003   -0.0000    0.0001   -0.0009    0.0042
        7 PB1    7s         0.0000    0.0000   -0.0000   -0.0002   -0.0000    0.0001    0.0000   -0.0000   -0.0008    0.0002
        8 PB1    8s        -0.0000   -0.0000   -0.0000    0.0000    0.0000   -0.0000   -0.0000    0.0000    0.0002   -0.0001
        9 PB1    9s        -0.0000   -0.0000    0.0000    0.0000    0.0000    0.0000    0.0000   -0.0000    0.0000   -0.0000
       10 PB1    2pz       -0.0000   -0.0000    1.0000    0.0000   -0.0000   -0.0000    0.0000    0.0000    0.0000    0.0000
       11 PB1    3pz       -0.0000   -0.0000    0.0000    0.0001    1.0000   -0.0001   -0.0000    0.0000    0.0000    0.0000
       12 PB1    4pz       -0.0000   -0.0000    0.0000    0.0000    0.0000    0.0000    0.0000   -0.0000    0.0016    1.0003
       13 PB1    5pz       -0.0000   -0.0000    0.0000    0.0000   -0.0001   -0.0001   -0.0000    0.0000    0.0003    0.0019
       14 PB1    6pz        0.0000    0.0001    0.0001   -0.0005   -0.0001   -0.0000    0.0000    0.0000   -0.0016    0.0030
       15 PB1    7pz       -0.0000   -0.0000   -0.0000    0.0000    0.0000    0.0000   -0.0000   -0.0000    0.0001   -0.0007
       16 PB1    8pz       -0.0000   -0.0000   -0.0000    0.0001    0.0000   -0.0000   -0.0000    0.0000    0.0004   -0.0003
       17 PB1    9pz        0.0000    0.0000    0.0000   -0.0001   -0.0000    0.0000    0.0000   -0.0000   -0.0002    0.0003
       18 PB1    3d2-       0.0000    0.0000    0.0000    0.0000   -0.0000   -0.1393    0.9247   -0.3544   -0.0000    0.0000
       19 PB1    4d2-      -0.0000   -0.0000   -0.0000    0.0000   -0.0000   -0.0000    0.0000   -0.0000    0.0001   -0.0000
       20 PB1    5d2-       0.0000    0.0000    0.0000   -0.0000   -0.0000    0.0000    0.0000   -0.0000    0.0000   -0.0000
       21 PB1    6d2-      -0.0000   -0.0000   -0.0000    0.0000    0.0000   -0.0000    0.0000   -0.0000    0.0000   -0.0000
       22 PB1    7d2-       0.0000    0.0000    0.0000   -0.0000   -0.0000    0.0000   -0.0000    0.0000    0.0000   -0.0000
       23 PB1    8d2-      -0.0000   -0.0000   -0.0000    0.0000    0.0000   -0.0000    0.0000   -0.0000   -0.0000    0.0000
       24 PB1    3d0       -0.0000    0.0000    0.0000    0.0001    0.0001    0.9307    0.0000   -0.3659   -0.0000   -0.0000
       25 PB1    4d0       -0.0000   -0.0000    0.0000    0.0000    0.0000    0.0001    0.0000   -0.0000    0.0009    0.0015
       26 PB1    5d0        0.0000    0.0000    0.0000   -0.0001   -0.0000    0.0000    0.0000   -0.0000   -0.0002    0.0011
       27 PB1    6d0        0.0000    0.0000    0.0000   -0.0003   -0.0001    0.0001    0.0000   -0.0000   -0.0011    0.0011
       28 PB1    7d0        0.0000    0.0000   -0.0000   -0.0001   -0.0000   -0.0000   -0.0000    0.0000   -0.0002    0.0005
       29 PB1    8d0       -0.0000   -0.0000   -0.0000    0.0001    0.0000    0.0000   -0.0000    0.0000    0.0002   -0.0003
       30 PB1    3d2+      -0.0000   -0.0000   -0.0000   -0.0000    0.0000    0.3383    0.3808    0.8605    0.0000   -0.0000
       31 PB1    4d2+       0.0000    0.0000    0.0000   -0.0000    0.0000    0.0000    0.0000    0.0000   -0.0002    0.0001
       32 PB1    5d2+      -0.0000   -0.0000   -0.0000    0.0000    0.0000   -0.0000    0.0000    0.0000   -0.0000    0.0000
       33 PB1    6d2+       0.0000    0.0000    0.0000   -0.0000   -0.0000    0.0000    0.0000    0.0000   -0.0000    0.0000
       34 PB1    7d2+      -0.0000   -0.0000   -0.0000    0.0000    0.0000   -0.0000   -0.0000   -0.0000   -0.0000    0.0000
       35 PB1    8d2+       0.0000    0.0000    0.0000   -0.0000   -0.0000    0.0000    0.0000    0.0000    0.0000   -0.0000
       36 PB1    4f2-       0.0000   -0.0000    0.0000   -0.0000    0.0000    0.0000   -0.0000    0.0000   -0.0000    0.0001
       37 PB1    5f2-      -0.0000    0.0000   -0.0000    0.0000   -0.0000   -0.0000    0.0000   -0.0000    0.0000   -0.0000
       38 PB1    6f2-       0.0000   -0.0000    0.0000   -0.0000    0.0000   -0.0000    0.0000   -0.0000   -0.0000    0.0000
       39 PB1    7f2-      -0.0000    0.0000   -0.0000    0.0000   -0.0000    0.0000   -0.0000    0.0000    0.0000    0.0000
       40 PB1    4f0       -0.0000    0.0000    0.0000    0.0000    0.0000    0.0000   -0.0000   -0.0000    0.0002    0.0007
       41 PB1    5f0        0.0000    0.0000    0.0000   -0.0000   -0.0000    0.0000    0.0000   -0.0000   -0.0001    0.0003
       42 PB1    6f0        0.0000    0.0000    0.0000   -0.0001   -0.0000    0.0000    0.0000   -0.0000   -0.0004    0.0003
       43 PB1    7f0        0.0000    0.0000   -0.0000   -0.0000   -0.0000   -0.0000    0.0000    0.0000   -0.0001    0.0003
       44 PB1    4f2+      -0.0000    0.0000   -0.0000    0.0000   -0.0000   -0.0000   -0.0000   -0.0000    0.0000   -0.0001
       45 PB1    5f2+       0.0000   -0.0000    0.0000   -0.0000    0.0000    0.0000    0.0000    0.0000   -0.0000    0.0000
       46 PB1    6f2+      -0.0000    0.0000   -0.0000    0.0000   -0.0000    0.0000    0.0000    0.0000    0.0000   -0.0000
       47 PB1    7f2+       0.0000   -0.0000    0.0000   -0.0000    0.0000   -0.0000   -0.0000   -0.0000   -0.0000   -0.0000
       48 PB1    5g4-       0.0000   -0.0000    0.0000    0.0000   -0.0000    0.0000   -0.0000    0.0000   -0.0000    0.0000
       49 PB1    6g4-       0.0000   -0.0000    0.0000    0.0000   -0.0000   -0.0000    0.0000   -0.0000   -0.0000    0.0000
       50 PB1    7g4-       0.0000   -0.0000    0.0000    0.0000   -0.0000    0.0000   -0.0000    0.0000   -0.0000    0.0000
       51 PB1    5g2-       0.0000   -0.0000    0.0000    0.0000   -0.0000   -0.0000    0.0000   -0.0000   -0.0000   -0.0000
       52 PB1    6g2-       0.0000    0.0000    0.0000   -0.0000    0.0000   -0.0000    0.0000   -0.0000    0.0000    0.0000
       53 PB1    7g2-       0.0000    0.0000    0.0000   -0.0000   -0.0000    0.0000   -0.0000    0.0000    0.0000   -0.0000
       54 PB1    5g0        0.0000    0.0000    0.0000   -0.0000   -0.0000    0.0000    0.0000   -0.0000   -0.0000    0.0001
       55 PB1    6g0        0.0000    0.0000    0.0000   -0.0000   -0.0000    0.0000    0.0000   -0.0000   -0.0001    0.0001
       56 PB1    7g0        0.0000    0.0000    0.0000   -0.0000   -0.0000   -0.0000    0.0000    0.0000   -0.0000    0.0001
       57 PB1    5g2+      -0.0000    0.0000   -0.0000   -0.0000    0.0000    0.0000    0.0000    0.0000    0.0000    0.0000
       58 PB1    6g2+      -0.0000   -0.0000   -0.0000    0.0000   -0.0000    0.0000    0.0000    0.0000   -0.0000   -0.0000
       59 PB1    7g2+      -0.0000   -0.0000   -0.0000    0.0000    0.0000   -0.0000   -0.0000   -0.0000   -0.0000    0.0000
       60 PB1    5g4+      -0.0000    0.0000   -0.0000   -0.0000    0.0000   -0.0000   -0.0000   -0.0000    0.0000   -0.0000
       61 PB1    6g4+      -0.0000    0.0000   -0.0000   -0.0000    0.0000    0.0000    0.0000    0.0000    0.0000   -0.0000
       62 PB1    7g4+      -0.0000    0.0000   -0.0000   -0.0000    0.0000   -0.0000   -0.0000   -0.0000    0.0000   -0.0000
       63 O2     1s        -0.0000   -0.0000   -0.0000    0.0001    0.0000   -0.0000   -0.0000    0.0000    0.0004   -0.0009
       64 O2     2s        -0.0000   -0.0001   -0.0001    0.0005    0.0002    0.0002   -0.0000   -0.0001    0.0016   -0.0053
       65 O2     3s        -0.0000   -0.0000   -0.0001    0.0002    0.0001    0.0002    0.0000   -0.0001    0.0005   -0.0030
       66 O2     4s        -0.0000   -0.0000   -0.0000    0.0000    0.0000    0.0001    0.0000   -0.0000    0.0001   -0.0005
       67 O2     5s         0.0000    0.0000    0.0000   -0.0000   -0.0000    0.0000    0.0000   -0.0000    0.0000    0.0000
       68 O2     2pz       -0.0000   -0.0000    0.0000    0.0002   -0.0000   -0.0002   -0.0000    0.0001    0.0011    0.0015
       69 O2     3pz       -0.0000   -0.0000    0.0000    0.0002   -0.0000   -0.0002   -0.0000    0.0001    0.0008    0.0010
       70 O2     4pz        0.0000    0.0000   -0.0000   -0.0001    0.0000    0.0001    0.0000   -0.0000   -0.0003   -0.0005
       71 O2     5pz        0.0000    0.0000    0.0000   -0.0000    0.0000    0.0000    0.0000   -0.0000   -0.0000   -0.0001
       72 O2     3d2-      -0.0000   -0.0000   -0.0000    0.0000   -0.0000    0.0000   -0.0000    0.0000   -0.0000   -0.0000
       73 O2     4d2-      -0.0000   -0.0000   -0.0000    0.0000    0.0000    0.0000   -0.0000    0.0000   -0.0000   -0.0000
       74 O2     5d2-      -0.0000   -0.0000    0.0000    0.0000    0.0000   -0.0000    0.0000   -0.0000   -0.0000   -0.0000
       75 O2     3d0        0.0000    0.0000   -0.0000   -0.0002   -0.0000    0.0002    0.0000   -0.0001   -0.0010   -0.0003
       76 O2     4d0        0.0000    0.0000    0.0000   -0.0001   -0.0000    0.0001    0.0000   -0.0000   -0.0006   -0.0003
       77 O2     5d0        0.0000    0.0000    0.0000   -0.0000   -0.0000    0.0000    0.0000   -0.0000   -0.0000   -0.0001
       78 O2     3d2+       0.0000    0.0000    0.0000   -0.0000    0.0000   -0.0000   -0.0000   -0.0000    0.0000    0.0000
       79 O2     4d2+       0.0000    0.0000    0.0000   -0.0000   -0.0000   -0.0000   -0.0000   -0.0000    0.0000    0.0000
       80 O2     5d2+       0.0000    0.0000   -0.0000   -0.0000   -0.0000    0.0000    0.0000    0.0000    0.0000    0.0000
       81 O2     4f2-      -0.0000   -0.0000    0.0000    0.0000    0.0000   -0.0000    0.0000   -0.0000   -0.0000    0.0000
       82 O2     5f2-       0.0000   -0.0000    0.0000   -0.0000    0.0000   -0.0000    0.0000   -0.0000    0.0000   -0.0000
       83 O2     4f0       -0.0000   -0.0000   -0.0000    0.0001    0.0000   -0.0001   -0.0000    0.0000    0.0005    0.0000
       84 O2     5f0       -0.0000   -0.0000   -0.0000    0.0000    0.0000   -0.0000   -0.0000    0.0000    0.0002    0.0001
       85 O2     4f2+       0.0000    0.0000   -0.0000   -0.0000   -0.0000    0.0000    0.0000    0.0000    0.0000   -0.0000
       86 O2     5f2+      -0.0000    0.0000   -0.0000    0.0000   -0.0000    0.0000    0.0000    0.0000   -0.0000    0.0000
       87 O2     5g4-      -0.0000    0.0000   -0.0000   -0.0000    0.0000    0.0000   -0.0000    0.0000    0.0000   -0.0000
       88 O2     5g2-       0.0000    0.0000    0.0000   -0.0000    0.0000    0.0000   -0.0000    0.0000    0.0000   -0.0000
       89 O2     5g0        0.0000    0.0000    0.0000   -0.0000    0.0000    0.0000    0.0000   -0.0000   -0.0001   -0.0000
       90 O2     5g2+      -0.0000   -0.0000   -0.0000    0.0000   -0.0000   -0.0000   -0.0000   -0.0000   -0.0000    0.0000
       91 O2     5g4+       0.0000   -0.0000    0.0000    0.0000   -0.0000   -0.0000   -0.0000   -0.0000   -0.0000    0.0000
 
          Orbital           11        12        13        14        15        16        17        18        19        20    
          Energy          -20.7401  -16.5585  -16.5415  -16.5410   -6.3063   -5.9896   -5.9737   -5.9729   -4.1131   -1.7742
          Occ. No.          2.0000    2.0000    2.0000    2.0000    2.0000    2.0000    2.0000    2.0000    2.0000    2.0000
 
        1 PB1    1s        -0.0001    0.0000   -0.0000    0.0000   -0.0001    0.0000   -0.0000   -0.0000   -0.0001   -0.0010
        2 PB1    2s        -0.0004    0.0000   -0.0000    0.0000   -0.0003    0.0001   -0.0000   -0.0000   -0.0007   -0.0064
        3 PB1    3s        -0.0015    0.0001   -0.0000    0.0000   -0.0011    0.0003   -0.0000   -0.0001   -0.0026   -0.0225
        4 PB1    4s        -0.0044   -0.0004   -0.0000    0.0005   -0.0038    0.0006   -0.0000   -0.0003   -0.0088   -0.0699
        5 PB1    5s        -0.0110    0.0025   -0.0000   -0.0003    0.9843   -0.0325   -0.0000    0.0058   -0.0687   -0.2537
        6 PB1    6s        -0.0141    0.0034   -0.0000   -0.0002   -0.0285    0.0034   -0.0000   -0.0010   -0.0265   -0.0636
        7 PB1    7s         0.0009    0.0008    0.0000   -0.0002   -0.0050   -0.0008    0.0000    0.0002   -0.0070   -0.0204
        8 PB1    8s        -0.0001   -0.0002   -0.0000    0.0001    0.0004   -0.0003   -0.0000    0.0000    0.0001    0.0009
        9 PB1    9s         0.0001   -0.0001    0.0000   -0.0000    0.0003    0.0003    0.0000    0.0000   -0.0003    0.0017
       10 PB1    2pz       -0.0000    0.0000   -0.0000    0.0000   -0.0000   -0.0000   -0.0000    0.0000   -0.0001   -0.0006
       11 PB1    3pz       -0.0001   -0.0000   -0.0000    0.0000   -0.0003   -0.0000   -0.0000    0.0000   -0.0010   -0.0054
       12 PB1    4pz       -0.0008   -0.0013   -0.0000    0.0002   -0.0030   -0.0008   -0.0000    0.0003   -0.0079   -0.0388
       13 PB1    5pz       -0.0024    0.0021   -0.0000   -0.0003    0.0154    0.0094   -0.0000   -0.0031    0.9435   -0.3552
       14 PB1    6pz       -0.0024    0.0031    0.0000   -0.0004   -0.0316    0.0002    0.0000   -0.0001   -0.0440   -0.0781
       15 PB1    7pz        0.0013   -0.0002    0.0000   -0.0000    0.0065    0.0001    0.0000    0.0000    0.0102    0.0218
       16 PB1    8pz       -0.0003   -0.0008   -0.0000    0.0001    0.0027    0.0001    0.0000    0.0000    0.0022    0.0033
       17 PB1    9pz       -0.0002    0.0005    0.0000   -0.0001   -0.0021    0.0002   -0.0000   -0.0001   -0.0026   -0.0035
       18 PB1    3d2-      -0.0000    0.0000   -0.0000    0.0000    0.0000   -0.0000    0.0000    0.0000    0.0000   -0.0000
       19 PB1    4d2-      -0.0000   -0.0686    0.9247   -0.3746   -0.0001    0.0000   -0.0004    0.0002   -0.0000    0.0000
       20 PB1    5d2-      -0.0000   -0.0000   -0.0001    0.0001    0.0007   -0.0001    0.0005   -0.0002   -0.0003   -0.0020
       21 PB1    6d2-      -0.0000    0.0000   -0.0000    0.0000   -0.0001    0.0001   -0.0009    0.0004   -0.0002    0.0009
       22 PB1    7d2-      -0.0000   -0.0000    0.0000   -0.0000   -0.0000   -0.0000    0.0004   -0.0001    0.0001    0.0001
       23 PB1    8d2-       0.0000    0.0000   -0.0000    0.0000    0.0001   -0.0000    0.0001   -0.0000   -0.0000   -0.0002
       24 PB1    3d0        0.0000   -0.0001   -0.0000    0.0000   -0.0001   -0.0000   -0.0000    0.0000   -0.0002   -0.0008
       25 PB1    4d0        0.0002    0.9837    0.0000   -0.1801   -0.0026   -0.0020   -0.0000    0.0005   -0.0057   -0.0191
       26 PB1    5d0        0.0021    0.0016    0.0000   -0.0002    0.0013    0.0020   -0.0000   -0.0005    0.0123    0.5193
       27 PB1    6d0        0.0025    0.0010    0.0000   -0.0002   -0.0191   -0.0016   -0.0000    0.0003   -0.0285   -0.0775
       28 PB1    7d0        0.0004    0.0011    0.0000   -0.0002   -0.0028    0.0003    0.0000   -0.0000   -0.0050    0.0019
       29 PB1    8d0       -0.0002   -0.0006   -0.0000    0.0001    0.0022    0.0004    0.0000   -0.0001    0.0029    0.0090
       30 PB1    3d2+       0.0000   -0.0000   -0.0000   -0.0000   -0.0000    0.0000    0.0000   -0.0000   -0.0000    0.0000
       31 PB1    4d2+       0.0000    0.1665    0.3808    0.9095    0.0002   -0.0000   -0.0002   -0.0004    0.0000   -0.0000
       32 PB1    5d2+       0.0000    0.0000   -0.0001   -0.0001   -0.0018    0.0002    0.0002    0.0005    0.0006    0.0049
       33 PB1    6d2+       0.0000   -0.0000   -0.0000   -0.0000    0.0003   -0.0002   -0.0004   -0.0009    0.0006   -0.0021
       34 PB1    7d2+       0.0000    0.0000    0.0000    0.0000    0.0001    0.0001    0.0001    0.0004   -0.0002   -0.0003
       35 PB1    8d2+      -0.0000   -0.0000   -0.0000   -0.0000   -0.0002    0.0000    0.0000    0.0001    0.0000    0.0004
       36 PB1    4f2-       0.0000   -0.0000    0.0004   -0.0002   -0.0005   -0.0823    0.9246   -0.3718   -0.0004   -0.0000
       37 PB1    5f2-      -0.0000   -0.0000    0.0001   -0.0000   -0.0000   -0.0001   -0.0001    0.0000    0.0005    0.0000
       38 PB1    6f2-      -0.0000    0.0000   -0.0001    0.0000   -0.0001    0.0001   -0.0009    0.0004    0.0000    0.0002
       39 PB1    7f2-      -0.0000   -0.0000    0.0001   -0.0000    0.0000   -0.0000    0.0003   -0.0001   -0.0001    0.0001
       40 PB1    4f0        0.0002    0.0018   -0.0000   -0.0004    0.0330    0.9754    0.0000   -0.2159   -0.0168   -0.0208
       41 PB1    5f0        0.0019    0.0004    0.0000   -0.0001   -0.0021    0.0008    0.0000    0.0000    0.0029    0.0379
       42 PB1    6f0        0.0018    0.0004    0.0000   -0.0001   -0.0064   -0.0020   -0.0000    0.0005   -0.0133   -0.0154
       43 PB1    7f0        0.0005    0.0005    0.0000   -0.0001   -0.0024    0.0007    0.0000   -0.0001   -0.0037   -0.0029
       44 PB1    4f2+      -0.0000    0.0001    0.0002    0.0004    0.0011    0.1998    0.3808    0.9028    0.0009    0.0000
       45 PB1    5f2+       0.0000    0.0000    0.0000    0.0001    0.0000    0.0002   -0.0000   -0.0001   -0.0013   -0.0001
       46 PB1    6f2+       0.0000   -0.0000   -0.0000   -0.0001    0.0002   -0.0002   -0.0004   -0.0009   -0.0001   -0.0005
       47 PB1    7f2+       0.0000    0.0000    0.0000    0.0001   -0.0001    0.0001    0.0001    0.0003    0.0002   -0.0002
       48 PB1    5g4-      -0.0000    0.0000   -0.0000    0.0000   -0.0000   -0.0000    0.0000   -0.0000    0.0000    0.0000
       49 PB1    6g4-      -0.0000   -0.0000    0.0000   -0.0000    0.0000   -0.0000   -0.0000    0.0000    0.0000   -0.0000
       50 PB1    7g4-      -0.0000    0.0000   -0.0000    0.0000    0.0000   -0.0000    0.0000   -0.0000    0.0000   -0.0000
       51 PB1    5g2-      -0.0000    0.0000    0.0001   -0.0001   -0.0000   -0.0000    0.0002   -0.0001    0.0000    0.0006
       52 PB1    6g2-      -0.0000   -0.0000   -0.0001    0.0000    0.0000    0.0000   -0.0007    0.0003    0.0000    0.0002
       53 PB1    7g2-      -0.0000   -0.0000    0.0001   -0.0000   -0.0000   -0.0000    0.0002   -0.0001    0.0000   -0.0000
       54 PB1    5g0        0.0007    0.0003    0.0000   -0.0001   -0.0001    0.0009    0.0000   -0.0002    0.0020    0.0093
       55 PB1    6g0        0.0006   -0.0001    0.0000    0.0000   -0.0019   -0.0013    0.0000    0.0003   -0.0044   -0.0054
       56 PB1    7g0        0.0003    0.0003   -0.0000   -0.0001   -0.0005    0.0005    0.0000   -0.0001   -0.0013   -0.0010
       57 PB1    5g2+       0.0000   -0.0000    0.0000    0.0001    0.0001    0.0001    0.0001    0.0002   -0.0001   -0.0014
       58 PB1    6g2+       0.0000    0.0000   -0.0000   -0.0001   -0.0000   -0.0001   -0.0003   -0.0007   -0.0000   -0.0006
       59 PB1    7g2+       0.0000    0.0000    0.0000    0.0001    0.0000    0.0001    0.0001    0.0002   -0.0000    0.0000
       60 PB1    5g4+       0.0000   -0.0000   -0.0000   -0.0000    0.0000    0.0000    0.0000    0.0000   -0.0000   -0.0000
       61 PB1    6g4+       0.0000    0.0000    0.0000    0.0000   -0.0000    0.0000   -0.0000   -0.0000   -0.0000    0.0000
       62 PB1    7g4+       0.0000   -0.0000   -0.0000   -0.0000   -0.0000    0.0000    0.0000    0.0000   -0.0000    0.0000
       63 O2     1s         1.0003   -0.0012   -0.0000    0.0002    0.0022   -0.0015    0.0000    0.0004   -0.0088   -0.0092
       64 O2     2s         0.0093   -0.0047    0.0000    0.0005    0.0556    0.0018    0.0000   -0.0002    0.1208    0.7836
       65 O2     3s         0.0088   -0.0027    0.0000    0.0002    0.0155   -0.0041    0.0000    0.0012    0.0028    0.0307
       66 O2     4s         0.0048   -0.0004    0.0000   -0.0000    0.0031   -0.0001    0.0000    0.0001    0.0007    0.0034
       67 O2     5s         0.0006    0.0000    0.0000   -0.0000    0.0005    0.0002   -0.0000   -0.0000    0.0015    0.0041
       68 O2     2pz       -0.0108   -0.0000   -0.0000    0.0003   -0.0157   -0.0019   -0.0000    0.0003   -0.0646   -0.2927
       69 O2     3pz       -0.0081    0.0003   -0.0000    0.0002    0.0086    0.0044   -0.0000   -0.0013    0.0345    0.0313
       70 O2     4pz       -0.0006   -0.0003    0.0000    0.0000    0.0002   -0.0021   -0.0000    0.0005   -0.0044    0.0100
       71 O2     5pz        0.0034   -0.0001    0.0000   -0.0000   -0.0004   -0.0006    0.0000    0.0002   -0.0031   -0.0077
       72 O2     3d2-      -0.0000    0.0000   -0.0000    0.0000    0.0000   -0.0000    0.0009   -0.0004    0.0001    0.0003
       73 O2     4d2-       0.0000    0.0000   -0.0000    0.0000    0.0000   -0.0000    0.0003   -0.0001    0.0000    0.0002
       74 O2     5d2-       0.0000    0.0000   -0.0000    0.0000    0.0000    0.0000    0.0000   -0.0000   -0.0000   -0.0000
       75 O2     3d0        0.0031    0.0004    0.0000   -0.0002    0.0022    0.0005    0.0000   -0.0001    0.0182    0.0594
       76 O2     4d0        0.0027    0.0001    0.0000   -0.0001   -0.0048   -0.0015    0.0000    0.0004   -0.0094    0.0030
       77 O2     5d0        0.0015    0.0000    0.0000   -0.0000   -0.0009   -0.0002    0.0000    0.0001   -0.0024   -0.0028
       78 O2     3d2+       0.0000   -0.0000   -0.0000   -0.0000   -0.0001    0.0001    0.0004    0.0009   -0.0002   -0.0008
       79 O2     4d2+      -0.0001   -0.0000   -0.0000   -0.0000   -0.0001    0.0000    0.0001    0.0003   -0.0001   -0.0005
       80 O2     5d2+      -0.0000   -0.0000   -0.0000   -0.0000   -0.0000   -0.0000    0.0000    0.0000    0.0000    0.0000
       81 O2     4f2-      -0.0000    0.0000   -0.0000    0.0000   -0.0000    0.0000   -0.0008    0.0003   -0.0000   -0.0003
       82 O2     5f2-      -0.0000    0.0000   -0.0000    0.0000   -0.0000    0.0000   -0.0003    0.0001    0.0000   -0.0001
       83 O2     4f0       -0.0008   -0.0001   -0.0000    0.0001   -0.0016   -0.0009   -0.0000    0.0002   -0.0086   -0.0184
       84 O2     5f0       -0.0004   -0.0001   -0.0000    0.0000    0.0017    0.0001   -0.0000   -0.0000    0.0016   -0.0012
       85 O2     4f2+       0.0000   -0.0000   -0.0000   -0.0000    0.0001   -0.0001   -0.0003   -0.0008    0.0001    0.0006
       86 O2     5f2+       0.0000   -0.0000   -0.0000   -0.0000    0.0000   -0.0000   -0.0001   -0.0003   -0.0000    0.0002
       87 O2     5g4-      -0.0000    0.0000   -0.0000    0.0000    0.0000    0.0000   -0.0000    0.0000   -0.0000   -0.0000
       88 O2     5g2-       0.0000   -0.0000   -0.0000    0.0000    0.0000   -0.0000    0.0003   -0.0001    0.0000    0.0000
       89 O2     5g0        0.0001   -0.0000    0.0000   -0.0000    0.0015    0.0007    0.0000   -0.0002    0.0032    0.0049
       90 O2     5g2+      -0.0000    0.0000   -0.0000   -0.0000   -0.0000    0.0000    0.0001    0.0003   -0.0000   -0.0001
       91 O2     5g4+       0.0000   -0.0000   -0.0000   -0.0000   -0.0000   -0.0000   -0.0000   -0.0000    0.0000    0.0000
 
          Orbital           21        22        23        24        25        26        27        28        29        30    
          Energy           -1.1933   -1.1924   -1.0944   -0.6103   -0.0449    0.0601    0.1259    0.1966    0.1971    0.2101
          Occ. No.          2.0000    2.0000    2.0000    2.0000    0.0000    0.0000    0.0000    0.0000    0.0000    0.0000
 
        1 PB1    1s         0.0000   -0.0000   -0.0001    0.0002    0.0027    0.0001   -0.0072   -0.0000    0.0025   -0.0059
        2 PB1    2s         0.0001   -0.0000   -0.0007    0.0016    0.0170    0.0006   -0.0449   -0.0000    0.0159   -0.0372
        3 PB1    3s         0.0003   -0.0000   -0.0023    0.0056    0.0594    0.0021   -0.1565   -0.0000    0.0554   -0.1298
        4 PB1    4s         0.0010    0.0000   -0.0076    0.0169    0.1762    0.0036   -0.4580   -0.0000    0.1638   -0.3854
        5 PB1    5s         0.0066    0.0000   -0.0339    0.0510    0.5054   -0.0321   -1.2606   -0.0000    0.4829   -1.1688
        6 PB1    6s        -0.0278   -0.0000    0.2236   -0.8386    0.8739   -0.2385   -2.0500   -0.0000    1.0185   -2.7236
        7 PB1    7s         0.0106    0.0000   -0.0196    0.0416    0.2448    0.0105   -0.6046   -0.0000    0.1780   -0.4421
        8 PB1    8s         0.0010    0.0000   -0.0033    0.0048    0.1438    0.1350   -0.4805   -0.0000    0.0419   -0.0077
        9 PB1    9s        -0.0007    0.0000    0.0016   -0.0020    0.0447    0.0738   -0.1920    0.0000   -0.0062    0.0784
       10 PB1    2pz        0.0000    0.0000   -0.0000    0.0002    0.0008    0.0001   -0.0016   -0.0000    0.0003   -0.0006
       11 PB1    3pz        0.0001    0.0000   -0.0003    0.0017    0.0075    0.0014   -0.0151   -0.0000    0.0033   -0.0061
       12 PB1    4pz        0.0005    0.0000   -0.0028    0.0116    0.0502    0.0071   -0.0973   -0.0000    0.0223   -0.0429
       13 PB1    5pz        0.0061    0.0000   -0.0415    0.0726    0.2877   -0.0191   -0.4797   -0.0000    0.1490   -0.3462
       14 PB1    6pz       -0.0064   -0.0000    0.0755    0.1347   -0.5730   -0.0411   -0.8457   -0.0000    0.4646   -1.3179
       15 PB1    7pz        0.0017    0.0000   -0.0286   -0.0257   -0.1263    0.7137    0.7082    0.0000   -0.1843    0.3961
       16 PB1    8pz        0.0001    0.0000   -0.0014   -0.0062   -0.0386    0.6237    0.3453    0.0000   -0.1521    0.4138
       17 PB1    9pz       -0.0003    0.0000    0.0049    0.0039   -0.0132    0.1868    0.1305    0.0000   -0.0382    0.0912
       18 PB1    3d2-       0.0000   -0.0000   -0.0000    0.0000    0.0000    0.0000    0.0000    0.0000   -0.0000   -0.0000
       19 PB1    4d2-       0.0001   -0.0001   -0.0000    0.0000    0.0000    0.0000    0.0000    0.0001   -0.0000   -0.0000
       20 PB1    5d2-      -0.3775    0.9207   -0.0354    0.0046    0.0021    0.0010   -0.0019    0.0103   -0.0044   -0.0002
       21 PB1    6d2-       0.0059   -0.0136   -0.0002    0.0031   -0.0017    0.0034   -0.0188    0.6469   -0.2528   -0.0809
       22 PB1    7d2-      -0.0006    0.0020   -0.0010    0.0035    0.0001    0.0034   -0.0228    0.6139   -0.2410   -0.0734
       23 PB1    8d2-      -0.0010    0.0025   -0.0004    0.0017    0.0003    0.0016   -0.0124    0.2991   -0.1177   -0.0351
       24 PB1    3d0        0.0000   -0.0000    0.0000    0.0003    0.0008    0.0003   -0.0009    0.0000   -0.0000    0.0004
       25 PB1    4d0        0.0001   -0.0000    0.0006    0.0062    0.0152    0.0051   -0.0155   -0.0000   -0.0004    0.0059
       26 PB1    5d0        0.0578    0.0000   -0.6115    0.1650    0.3281    0.0269   -0.0749   -0.0000    0.0256   -0.0574
       27 PB1    6d0       -0.0049   -0.0000    0.0408    0.0780    0.1205   -0.2673    0.2668   -0.0000    0.1678   -0.6969
       28 PB1    7d0       -0.0021   -0.0000    0.0041    0.0193    0.0238   -0.1145    0.2892   -0.0000    0.1379   -0.5664
       29 PB1    8d0        0.0002   -0.0000   -0.0056   -0.0010    0.0043    0.0119    0.1117   -0.0000    0.0525   -0.2078
       30 PB1    3d2+      -0.0000   -0.0000    0.0000   -0.0000   -0.0000   -0.0000   -0.0000    0.0000    0.0000    0.0000
       31 PB1    4d2+      -0.0001   -0.0001    0.0001   -0.0001   -0.0000   -0.0001   -0.0000    0.0000    0.0001    0.0001
       32 PB1    5d2+       0.9165    0.3792    0.0861   -0.0111   -0.0050   -0.0024    0.0046    0.0043    0.0108    0.0005
       33 PB1    6d2+      -0.0143   -0.0056    0.0005   -0.0075    0.0042   -0.0083    0.0456    0.2664    0.6137    0.1965
       34 PB1    7d2+       0.0015    0.0008    0.0023   -0.0086   -0.0001   -0.0082    0.0552    0.2528    0.5852    0.1783
       35 PB1    8d2+       0.0024    0.0010    0.0010   -0.0041   -0.0007   -0.0038    0.0300    0.1232    0.2858    0.0852
       36 PB1    4f2-       0.0006   -0.0014    0.0001   -0.0000    0.0000    0.0000    0.0000    0.0000   -0.0000   -0.0000
       37 PB1    5f2-      -0.0034    0.0085   -0.0003    0.0014   -0.0023    0.0006   -0.0031    0.0055   -0.0016   -0.0020
       38 PB1    6f2-       0.0007   -0.0019    0.0006    0.0004   -0.0031    0.0018   -0.0047    0.0193   -0.0068   -0.0044
       39 PB1    7f2-       0.0003   -0.0009    0.0004   -0.0000   -0.0015    0.0013   -0.0024    0.0127   -0.0046   -0.0026
       40 PB1    4f0       -0.0000    0.0000    0.0032    0.0064    0.0102    0.0043   -0.0017    0.0000   -0.0024    0.0088
       41 PB1    5f0       -0.0014   -0.0000   -0.0048   -0.0109   -0.0498   -0.0516    0.0215    0.0000   -0.0075    0.0112
       42 PB1    6f0       -0.0016   -0.0000    0.0165    0.0170   -0.0335   -0.0963    0.0929    0.0000   -0.0019   -0.0314
       43 PB1    7f0       -0.0002   -0.0000    0.0050    0.0057   -0.0173   -0.0479    0.0544   -0.0000    0.0025   -0.0296
       44 PB1    4f2+      -0.0014   -0.0006   -0.0001    0.0001   -0.0000   -0.0001   -0.0000    0.0000    0.0000    0.0000
       45 PB1    5f2+       0.0084    0.0035    0.0007   -0.0034    0.0055   -0.0016    0.0076    0.0023    0.0039    0.0048
       46 PB1    6f2+      -0.0018   -0.0008   -0.0016   -0.0010    0.0076   -0.0043    0.0115    0.0080    0.0165    0.0107
       47 PB1    7f2+      -0.0008   -0.0004   -0.0009    0.0001    0.0036   -0.0031    0.0059    0.0052    0.0112    0.0063
       48 PB1    5g4-       0.0031   -0.0031    0.0003   -0.0002    0.0001   -0.0000    0.0001   -0.0032    0.0030    0.0010
       49 PB1    6g4-       0.0014   -0.0015    0.0002   -0.0003    0.0001   -0.0001    0.0005   -0.0092    0.0086    0.0028
       50 PB1    7g4-      -0.0000    0.0000    0.0001   -0.0002    0.0001   -0.0001    0.0007   -0.0100    0.0094    0.0030
       51 PB1    5g2-      -0.0023    0.0057   -0.0007    0.0000    0.0008    0.0004    0.0002    0.0049   -0.0018   -0.0012
       52 PB1    6g2-       0.0001   -0.0003   -0.0001    0.0002    0.0012    0.0004    0.0004    0.0194   -0.0073   -0.0042
       53 PB1    7g2-       0.0001   -0.0003    0.0002    0.0001    0.0009   -0.0000    0.0004    0.0208   -0.0077   -0.0045
       54 PB1    5g0       -0.0003   -0.0000   -0.0053    0.0009   -0.0044   -0.0011    0.0155    0.0000   -0.0062    0.0147
       55 PB1    6g0       -0.0005   -0.0000    0.0049    0.0052   -0.0025   -0.0165    0.0498    0.0000   -0.0072    0.0006
       56 PB1    7g0        0.0000    0.0000    0.0013    0.0020   -0.0027   -0.0106    0.0356    0.0000   -0.0052   -0.0032
       57 PB1    5g2+       0.0056    0.0024    0.0018   -0.0001   -0.0021   -0.0010   -0.0004    0.0020    0.0045    0.0028
       58 PB1    6g2+      -0.0003   -0.0001    0.0003   -0.0004   -0.0028   -0.0009   -0.0009    0.0080    0.0177    0.0102
       59 PB1    7g2+      -0.0002   -0.0001   -0.0004   -0.0003   -0.0021    0.0001   -0.0009    0.0086    0.0188    0.0110
       60 PB1    5g4+      -0.0031   -0.0031   -0.0003    0.0002   -0.0001    0.0000   -0.0001   -0.0032   -0.0031   -0.0010
       61 PB1    6g4+      -0.0014   -0.0014   -0.0002    0.0003   -0.0001    0.0001   -0.0005   -0.0091   -0.0087   -0.0028
       62 PB1    7g4+       0.0000    0.0000   -0.0001    0.0002   -0.0001    0.0001   -0.0007   -0.0099   -0.0095   -0.0030
       63 O2     1s        -0.0006   -0.0000    0.0132    0.0181   -0.0408    0.1035    0.2152    0.0000   -0.1240    0.3529
       64 O2     2s        -0.0585   -0.0000    0.6338    0.3206   -0.3783    0.4360    1.6648    0.0000   -0.8917    2.4755
       65 O2     3s        -0.0013   -0.0000    0.0207    0.0640   -0.2251    0.3107    1.2154    0.0000   -0.6664    1.8358
       66 O2     4s         0.0012    0.0000   -0.0123    0.0172   -0.0606    0.0740    0.3591    0.0000   -0.2203    0.6137
       67 O2     5s         0.0004    0.0000   -0.0055    0.0018   -0.0120    0.0021    0.0689    0.0000   -0.0448    0.1239
       68 O2     2pz       -0.0176   -0.0000    0.2754    0.4469    0.8798    0.1241   -0.9307   -0.0000    0.2387   -0.4138
       69 O2     3pz        0.0055    0.0000   -0.0729   -0.0501    0.3989    0.0002   -1.2060   -0.0000    0.5092   -1.2190
       70 O2     4pz       -0.0015   -0.0000    0.0211   -0.0136    0.0343   -0.0261   -0.1343   -0.0000    0.1652   -0.4743
       71 O2     5pz        0.0002    0.0000   -0.0000   -0.0007    0.0130    0.0117   -0.0272   -0.0000    0.0309   -0.0850
       72 O2     3d2-      -0.0047    0.0113    0.0007   -0.0008   -0.0004   -0.0005   -0.0003   -0.0172    0.0066    0.0030
       73 O2     4d2-      -0.0003    0.0005    0.0007   -0.0004   -0.0001   -0.0004    0.0005   -0.0299    0.0116    0.0043
       74 O2     5d2-       0.0001   -0.0003    0.0001   -0.0001    0.0000   -0.0000    0.0003   -0.0142    0.0056    0.0018
       75 O2     3d0        0.0040    0.0000   -0.0413   -0.0174   -0.0770   -0.1227    0.2591    0.0000   -0.0120   -0.0454
       76 O2     4d0       -0.0002    0.0000    0.0086    0.0045   -0.0467   -0.0619    0.1687    0.0000   -0.0264    0.0308
       77 O2     5d0        0.0001    0.0000    0.0010    0.0022   -0.0067   -0.0025    0.0308    0.0000   -0.0128    0.0321
       78 O2     3d2+       0.0115    0.0046   -0.0017    0.0020    0.0010    0.0011    0.0008   -0.0071   -0.0159   -0.0072
       79 O2     4d2+       0.0006    0.0002   -0.0017    0.0010    0.0002    0.0009   -0.0013   -0.0123   -0.0282   -0.0104
       80 O2     5d2+      -0.0002   -0.0001   -0.0003    0.0002   -0.0000    0.0000   -0.0008   -0.0059   -0.0136   -0.0043
       81 O2     4f2-       0.0023   -0.0055   -0.0001    0.0003    0.0003    0.0005    0.0002   -0.0073    0.0029    0.0008
       82 O2     5f2-       0.0002   -0.0005   -0.0002    0.0000    0.0001    0.0003    0.0000   -0.0034    0.0014    0.0003
       83 O2     4f0       -0.0016   -0.0000    0.0164    0.0039    0.0210    0.0512   -0.0667    0.0000   -0.0081    0.0498
       84 O2     5f0        0.0000   -0.0000   -0.0014   -0.0007    0.0087    0.0218   -0.0273    0.0000   -0.0020    0.0166
       85 O2     4f2+      -0.0056   -0.0023    0.0001   -0.0007   -0.0008   -0.0012   -0.0006   -0.0030   -0.0070   -0.0020
       86 O2     5f2+      -0.0006   -0.0002    0.0004   -0.0001   -0.0002   -0.0008   -0.0001   -0.0014   -0.0034   -0.0006
       87 O2     5g4-       0.0000   -0.0000   -0.0000    0.0000    0.0000   -0.0000    0.0000    0.0000   -0.0000   -0.0000
       88 O2     5g2-      -0.0009    0.0022   -0.0000   -0.0000   -0.0000    0.0000   -0.0002    0.0048   -0.0019   -0.0007
       89 O2     5g0        0.0006    0.0000   -0.0061    0.0003   -0.0027   -0.0055    0.0157   -0.0000    0.0014   -0.0094
       90 O2     5g2+       0.0022    0.0009    0.0001    0.0001    0.0000   -0.0000    0.0004    0.0020    0.0045    0.0017
       91 O2     5g4+      -0.0000   -0.0000    0.0000   -0.0000   -0.0000    0.0000   -0.0000    0.0000    0.0000    0.0000
 
          Orbital           31        32        33        34        35        36        37        38        39        40    
          Energy            0.3251    0.3571    0.5942    0.5944    0.7177    0.8001    0.8663    0.8684    0.8946    1.0201
          Occ. No.          0.0000    0.0000    0.0000    0.0000    0.0000    0.0000    0.0000    0.0000    0.0000    0.0000
 
        1 PB1    1s        -0.0000    0.0057    0.0007   -0.0000    0.0023   -0.0139    0.0000   -0.0034   -0.0084   -0.0049
        2 PB1    2s        -0.0001    0.0360    0.0044   -0.0000    0.0143   -0.0871    0.0000   -0.0211   -0.0529   -0.0308
        3 PB1    3s        -0.0013    0.1251    0.0151   -0.0000    0.0484   -0.3032    0.0000   -0.0735   -0.1853   -0.1079
        4 PB1    4s        -0.0184    0.3607    0.0419   -0.0000    0.1211   -0.8806    0.0000   -0.2150   -0.5564   -0.3232
        5 PB1    5s        -0.2668    0.9424    0.0801   -0.0000    0.0136   -2.3097    0.0000   -0.5889   -1.7561   -1.0140
        6 PB1    6s        -1.6379    0.9507   -0.1500    0.0000   -2.3481   -2.7844    0.0000   -0.8948   -4.2522   -2.2787
        7 PB1    7s        -0.3436   -0.7232   -0.2174    0.0000   -1.7842    0.7154   -0.0000    0.0088   -1.1202   -0.4526
        8 PB1    8s         0.3427   -0.3501   -0.0564    0.0000   -0.4405   -0.3575    0.0000   -0.0836   -0.1500   -0.0006
        9 PB1    9s         0.2450   -0.1131   -0.0069    0.0000   -0.0503   -0.3612    0.0000   -0.0558    0.1074    0.0603
       10 PB1    2pz        0.0002   -0.0002    0.0001   -0.0000    0.0004   -0.0036    0.0000   -0.0008   -0.0014   -0.0005
       11 PB1    3pz        0.0017   -0.0023    0.0007   -0.0000    0.0038   -0.0342    0.0000   -0.0076   -0.0135   -0.0050
       12 PB1    4pz       -0.0002   -0.0216    0.0026   -0.0000    0.0077   -0.2169    0.0000   -0.0494   -0.0987   -0.0378
       13 PB1    5pz       -0.3223   -0.3055   -0.0524    0.0000   -0.4872   -0.9110    0.0000   -0.2420   -0.8131   -0.3420
       14 PB1    6pz       -1.7029   -2.6639   -0.5938    0.0000   -4.4796   -0.2066    0.0000   -0.2763   -2.6860   -0.7976
       15 PB1    7pz       -0.0802   -1.0380   -0.1680    0.0000   -1.1190    0.5575   -0.0000    0.1340    0.3380    0.3768
       16 PB1    8pz        0.7554   -0.1516    0.0556   -0.0000    0.5079    0.0020   -0.0000    0.0243    0.3177    0.2208
       17 PB1    9pz        0.3314    0.0583    0.0372   -0.0000    0.2886    0.1834   -0.0000    0.0271   -0.0344   -0.0346
       18 PB1    3d2-      -0.0000   -0.0000    0.0000    0.0000   -0.0000   -0.0000   -0.0001    0.0000   -0.0000    0.0000
       19 PB1    4d2-      -0.0001   -0.0001    0.0003    0.0007   -0.0000   -0.0002   -0.0021    0.0008   -0.0002    0.0007
       20 PB1    5d2-      -0.0008   -0.0020   -0.0032   -0.0077    0.0010   -0.0036   -0.0461    0.0183   -0.0041    0.0118
       21 PB1    6d2-      -0.0047   -0.0003    0.0099    0.0238    0.0014    0.0303    0.4986   -0.2028    0.0128    0.0495
       22 PB1    7d2-       0.0007    0.0029   -0.0234   -0.0568    0.0020   -0.0278   -0.4265    0.1723   -0.0156   -0.0177
       23 PB1    8d2-       0.0022    0.0025   -0.0195   -0.0474    0.0011   -0.0345   -0.5110    0.2066   -0.0166   -0.0282
       24 PB1    3d0        0.0005   -0.0008    0.0001   -0.0000    0.0015   -0.0027    0.0000   -0.0005   -0.0000    0.0002
       25 PB1    4d0        0.0024   -0.0190    0.0013   -0.0000    0.0179   -0.0450    0.0000   -0.0090   -0.0062   -0.0002
       26 PB1    5d0       -0.4825   -0.6026   -0.0798    0.0000   -0.4773   -0.0829    0.0000   -0.0474   -0.3697   -0.1469
       27 PB1    6d0       -0.5088   -1.8317   -0.3265    0.0000   -2.3584    0.1594   -0.0000    0.0044   -0.4295   -0.0605
       28 PB1    7d0       -0.0935   -1.3847   -0.2158    0.0000   -1.4170    0.6744   -0.0000    0.0789   -0.4511    0.1040
       29 PB1    8d0        0.1545   -0.4866   -0.0506    0.0000   -0.2563    0.3371   -0.0000    0.0329   -0.2202    0.0851
       30 PB1    3d2+       0.0000    0.0000   -0.0000    0.0000    0.0000    0.0000   -0.0000   -0.0001    0.0000   -0.0001
       31 PB1    4d2+       0.0001    0.0003   -0.0007    0.0003    0.0000    0.0006   -0.0009   -0.0020    0.0004   -0.0016
       32 PB1    5d2+       0.0020    0.0049    0.0077   -0.0032   -0.0025    0.0087   -0.0190   -0.0444    0.0100   -0.0286
       33 PB1    6d2+       0.0114    0.0006   -0.0240    0.0098   -0.0035   -0.0735    0.2053    0.4923   -0.0311   -0.1202
       34 PB1    7d2+      -0.0018   -0.0071    0.0568   -0.0234   -0.0049    0.0676   -0.1757   -0.4184    0.0378    0.0431
       35 PB1    8d2+      -0.0053   -0.0061    0.0474   -0.0195   -0.0026    0.0838   -0.2105   -0.5017    0.0403    0.0685
       36 PB1    4f2-      -0.0001   -0.0001    0.0003    0.0008   -0.0000   -0.0002   -0.0017    0.0007   -0.0002    0.0010
       37 PB1    5f2-      -0.0030   -0.0111    0.1916    0.4676   -0.0149   -0.0066   -0.1164    0.0473   -0.0071    0.0203
       38 PB1    6f2-      -0.0060   -0.0162    0.2672    0.6530   -0.0244   -0.0135   -0.2005    0.0811   -0.0109    0.0339
       39 PB1    7f2-      -0.0038   -0.0083    0.1401    0.3428   -0.0147   -0.0081   -0.1158    0.0468   -0.0056    0.0178
       40 PB1    4f0       -0.0015   -0.0109    0.0013   -0.0000    0.0175   -0.0128    0.0000   -0.0024    0.0001   -0.0023
       41 PB1    5f0        0.0469    0.0001   -0.0665    0.0000   -0.6697    0.2690   -0.0000    0.0525    0.1086    0.1227
       42 PB1    6f0       -0.1804   -0.1776   -0.1220    0.0000   -1.0123    0.6039   -0.0000    0.1050    0.0255    0.0075
       43 PB1    7f0       -0.1178   -0.1154   -0.0644    0.0000   -0.5037    0.3473   -0.0000    0.0608    0.0096   -0.0077
       44 PB1    4f2+       0.0002    0.0003   -0.0008    0.0003    0.0001    0.0005   -0.0007   -0.0016    0.0005   -0.0025
       45 PB1    5f2+       0.0073    0.0270   -0.4653    0.1926    0.0362    0.0160   -0.0479   -0.1148    0.0171   -0.0494
       46 PB1    6f2+       0.0147    0.0395   -0.6489    0.2689    0.0593    0.0328   -0.0826   -0.1969    0.0265   -0.0823
       47 PB1    7f2+       0.0091    0.0202   -0.3402    0.1412    0.0357    0.0196   -0.0477   -0.1137    0.0136   -0.0433
       48 PB1    5g4-       0.0001   -0.0001    0.0004    0.0005   -0.0001   -0.0018   -0.0142    0.0140   -0.0002   -0.0267
       49 PB1    6g4-       0.0002   -0.0002    0.0009    0.0009   -0.0002   -0.0036   -0.0290    0.0287   -0.0002   -0.0595
       50 PB1    7g4-       0.0001   -0.0002    0.0010    0.0010   -0.0002   -0.0028   -0.0235    0.0233    0.0002   -0.0573
       51 PB1    5g2-      -0.0007   -0.0027    0.0134    0.0328   -0.0011   -0.0012    0.0073   -0.0024    0.0127   -0.0873
       52 PB1    6g2-       0.0002   -0.0045    0.0114    0.0284   -0.0015   -0.0031   -0.0032    0.0027    0.0285   -0.1994
       53 PB1    7g2-       0.0013   -0.0030   -0.0016   -0.0034   -0.0004   -0.0020   -0.0106    0.0058    0.0271   -0.1950
       54 PB1    5g0        0.0196   -0.0268   -0.0026    0.0000   -0.0114   -0.0176    0.0000   -0.0126   -0.1047    0.1245
       55 PB1    6g0       -0.0319   -0.1067   -0.0145    0.0000   -0.0611    0.0359    0.0000   -0.0161   -0.2503    0.2749
       56 PB1    7g0       -0.0171   -0.1060   -0.0095    0.0000   -0.0205    0.0175    0.0000   -0.0174   -0.2410    0.2866
       57 PB1    5g2+       0.0018    0.0065   -0.0325    0.0135    0.0027    0.0030    0.0030    0.0059   -0.0308    0.2119
       58 PB1    6g2+      -0.0006    0.0109   -0.0278    0.0117    0.0036    0.0074   -0.0013   -0.0065   -0.0691    0.4842
       59 PB1    7g2+      -0.0032    0.0074    0.0038   -0.0014    0.0010    0.0049   -0.0044   -0.0142   -0.0659    0.4735
       60 PB1    5g4+      -0.0001    0.0001   -0.0004    0.0005    0.0001    0.0018   -0.0141   -0.0141    0.0002    0.0269
       61 PB1    6g4+      -0.0002    0.0002   -0.0009    0.0009    0.0002    0.0036   -0.0288   -0.0289    0.0002    0.0600
       62 PB1    7g4+      -0.0001    0.0002   -0.0010    0.0010    0.0002    0.0028   -0.0233   -0.0235   -0.0002    0.0578
       63 O2     1s         0.3409    0.2544    0.0914   -0.0000    0.7961    0.2009   -0.0000    0.0877    0.5753    0.2220
       64 O2     2s         2.0673    1.3938    0.4957   -0.0000    4.4380    1.7646   -0.0000    0.6856    4.0215    1.7114
       65 O2     3s         0.9672    0.5129    0.3153   -0.0000    3.2858    1.7584   -0.0000    0.6549    3.6048    1.5941
       66 O2     4s         0.2498    0.0117    0.0884   -0.0000    1.0336    0.5673   -0.0000    0.2302    1.3326    0.6867
       67 O2     5s         0.0177   -0.0470    0.0107   -0.0000    0.1756    0.1365   -0.0000    0.0561    0.3195    0.1847
       68 O2     2pz       -0.0601    1.9058    0.3155   -0.0000    1.8681   -2.2633    0.0000   -0.4976   -0.9123   -0.8343
       69 O2     3pz        0.0358    3.0661    0.3832   -0.0000    2.1039   -1.9748    0.0000   -0.4148   -0.6413   -0.8155
       70 O2     4pz       -0.1199    1.1074    0.1033   -0.0000    0.5412    0.0648    0.0000   -0.0185   -0.2927   -0.4333
       71 O2     5pz        0.0205    0.2726    0.0327   -0.0000    0.1863   -0.0268    0.0000   -0.0163   -0.0972   -0.1515
       72 O2     3d2-       0.0002    0.0029    0.0296    0.0721   -0.0036    0.0184    0.2067   -0.0827    0.0122   -0.0307
       73 O2     4d2-      -0.0001    0.0025    0.0191    0.0467   -0.0029    0.0156    0.1775   -0.0711    0.0091   -0.0129
       74 O2     5d2-      -0.0004    0.0002    0.0133    0.0325   -0.0018    0.0058    0.0681   -0.0273    0.0039   -0.0067
       75 O2     3d0       -0.4876   -0.2331   -0.1081    0.0000   -0.8697    0.7954   -0.0000    0.1446   -0.1518    0.0506
       76 O2     4d0       -0.2577   -0.1710   -0.0595    0.0000   -0.4744    0.4471   -0.0000    0.0844   -0.0737    0.0479
       77 O2     5d0       -0.0234   -0.0414   -0.0074    0.0000   -0.0591    0.0534   -0.0000    0.0122   -0.0017    0.0407
       78 O2     3d2+      -0.0006   -0.0071   -0.0719    0.0297    0.0089   -0.0447    0.0851    0.2009   -0.0295    0.0745
       79 O2     4d2+       0.0003   -0.0061   -0.0465    0.0192    0.0071   -0.0379    0.0731    0.1726   -0.0222    0.0314
       80 O2     5d2+       0.0010   -0.0006   -0.0322    0.0134    0.0045   -0.0140    0.0280    0.0662   -0.0094    0.0163
       81 O2     4f2-      -0.0016   -0.0019    0.0207    0.0507   -0.0020    0.0009    0.0237   -0.0097    0.0002    0.0043
       82 O2     5f2-      -0.0009   -0.0013    0.0165    0.0404   -0.0018    0.0007    0.0153   -0.0062    0.0009   -0.0023
       83 O2     4f0        0.1894    0.0221    0.0320   -0.0000    0.2849   -0.2421    0.0000   -0.0407    0.0675    0.0860
       84 O2     5f0        0.0781    0.0071    0.0118   -0.0000    0.1097   -0.0948    0.0000   -0.0160    0.0298    0.0489
       85 O2     4f2+       0.0038    0.0045   -0.0503    0.0209    0.0049   -0.0021    0.0097    0.0235   -0.0004   -0.0105
       86 O2     5f2+       0.0023    0.0031   -0.0401    0.0166    0.0043   -0.0018    0.0063    0.0150   -0.0023    0.0057
       87 O2     5g4-       0.0000    0.0000   -0.0009   -0.0009    0.0001   -0.0000   -0.0001    0.0001   -0.0001    0.0008
       88 O2     5g2-       0.0002    0.0001    0.0012    0.0029   -0.0005   -0.0005   -0.0112    0.0047    0.0009   -0.0095
       89 O2     5g0       -0.0292    0.0173   -0.0029    0.0000   -0.0372    0.0496   -0.0000    0.0064   -0.0332   -0.0210
       90 O2     5g2+      -0.0004   -0.0002   -0.0028    0.0012    0.0012    0.0013   -0.0046   -0.0113   -0.0022    0.0231
       91 O2     5g4+      -0.0000   -0.0000    0.0009   -0.0009   -0.0001    0.0000   -0.0001   -0.0001    0.0001   -0.0008
 
          Orbital           41        42        43        44        45        46        47        48        49        50    
          Energy            1.0275    1.0495    1.0919    1.0921    1.1557    1.5416    1.5602    1.5623    1.7419    1.7422
          Occ. No.          0.0000    0.0000    0.0000    0.0000    0.0000    0.0000    0.0000    0.0000    0.0000    0.0000
 
        1 PB1    1s         0.0000   -0.0057   -0.0000   -0.0002   -0.0053    0.0121    0.0000    0.0035    0.0022   -0.0000
        2 PB1    2s         0.0000   -0.0358   -0.0000   -0.0015   -0.0332    0.0760    0.0000    0.0218    0.0141   -0.0000
        3 PB1    3s         0.0000   -0.1252   -0.0000   -0.0051   -0.1152    0.2627    0.0000    0.0750    0.0489   -0.0000
        4 PB1    4s         0.0000   -0.3744   -0.0000   -0.0151   -0.3274    0.7336    0.0000    0.2062    0.1407   -0.0000
        5 PB1    5s         0.0000   -1.1700   -0.0000   -0.0460   -0.6862    1.5211    0.0000    0.3851    0.3452   -0.0000
        6 PB1    6s         0.0000   -2.5750   -0.0000   -0.0929    0.4172   -0.6889   -0.0000   -0.4749    0.2135   -0.0000
        7 PB1    7s         0.0000   -0.4829   -0.0000   -0.0151    1.1104   -1.7302   -0.0000   -0.6052   -0.1932    0.0000
        8 PB1    8s        -0.0000    0.0487    0.0000    0.0069   -0.5883   -0.0601    0.0000   -0.0010   -0.0309    0.0000
        9 PB1    9s        -0.0000    0.0893   -0.0000    0.0059   -0.5776    0.1580    0.0000    0.0721    0.0002   -0.0000
       10 PB1    2pz        0.0000   -0.0004   -0.0000   -0.0000   -0.0037    0.0040    0.0000    0.0012    0.0006   -0.0000
       11 PB1    3pz        0.0000   -0.0042   -0.0000   -0.0000   -0.0353    0.0374    0.0000    0.0116    0.0060   -0.0000
       12 PB1    4pz        0.0000   -0.0327   -0.0000   -0.0003   -0.2236    0.2163    0.0000    0.0657    0.0371   -0.0000
       13 PB1    5pz        0.0000   -0.3248   -0.0000   -0.0051   -0.9271    0.4463    0.0000    0.1019    0.1218   -0.0000
       14 PB1    6pz        0.0000   -0.5972    0.0000    0.0105   -0.9503   -2.5252   -0.0000   -0.8860   -0.2516    0.0000
       15 PB1    7pz       -0.0000    0.4998    0.0000    0.0252   -0.2736   -0.4299   -0.0000   -0.0568   -0.1515    0.0000
       16 PB1    8pz       -0.0000    0.2825    0.0000    0.0135   -0.5636    0.4025    0.0000    0.1422    0.0447   -0.0000
       17 PB1    9pz        0.0000   -0.0405   -0.0000   -0.0007   -0.0524   -0.0207   -0.0000   -0.0204    0.0107   -0.0000
       18 PB1    3d2-      -0.0001   -0.0000    0.0000   -0.0000   -0.0000    0.0000    0.0006   -0.0002    0.0005   -0.0013
       19 PB1    4d2-      -0.0020   -0.0005    0.0003   -0.0001   -0.0001    0.0010    0.0117   -0.0048    0.0114   -0.0278
       20 PB1    5d2-      -0.0370   -0.0093    0.0078   -0.0034   -0.0002    0.0125    0.1742   -0.0731    0.2238   -0.5466
       21 PB1    6d2-      -0.1431   -0.0317    0.0689   -0.0292   -0.0055   -0.0059    0.1381   -0.0653    0.4377   -1.0677
       22 PB1    7d2-       0.0460    0.0084   -0.0202    0.0085    0.0001   -0.0059   -0.0287    0.0101    0.0513   -0.1247
       23 PB1    8d2-       0.0773    0.0157   -0.0347    0.0147   -0.0001   -0.0016   -0.0485    0.0211   -0.0672    0.1644
       24 PB1    3d0       -0.0000    0.0004   -0.0000    0.0000   -0.0045    0.0038    0.0000    0.0012    0.0006   -0.0000
       25 PB1    4d0       -0.0000    0.0029   -0.0000    0.0005   -0.0766    0.0556    0.0000    0.0175    0.0087   -0.0000
       26 PB1    5d0        0.0000   -0.1298   -0.0000    0.0007   -0.5380   -0.1003   -0.0000   -0.0322   -0.0175    0.0000
       27 PB1    6d0       -0.0000   -0.0261    0.0000    0.0042   -0.0129   -1.1816   -0.0000   -0.3472   -0.2169    0.0000
       28 PB1    7d0       -0.0000    0.2604    0.0000    0.0245   -0.6635   -0.5323   -0.0000   -0.1190   -0.1368    0.0000
       29 PB1    8d0       -0.0000    0.1894    0.0000    0.0165   -0.6373    0.1010    0.0000    0.0544   -0.0081    0.0000
       30 PB1    3d2+      -0.0000    0.0001    0.0000    0.0000    0.0000   -0.0001    0.0002    0.0005   -0.0013   -0.0005
       31 PB1    4d2+      -0.0008    0.0012    0.0001    0.0003    0.0001   -0.0025    0.0048    0.0116   -0.0276   -0.0115
       32 PB1    5d2+      -0.0152    0.0226    0.0032    0.0083    0.0006   -0.0304    0.0718    0.1776   -0.5434   -0.2251
       33 PB1    6d2+      -0.0589    0.0770    0.0284    0.0709    0.0133    0.0143    0.0569    0.1585   -1.0628   -0.4397
       34 PB1    7d2+       0.0189   -0.0203   -0.0083   -0.0207   -0.0003    0.0142   -0.0118   -0.0245   -0.1247   -0.0513
       35 PB1    8d2+       0.0318   -0.0382   -0.0143   -0.0357    0.0001    0.0038   -0.0200   -0.0512    0.1632    0.0677
       36 PB1    4f2-      -0.0031   -0.0007    0.0005   -0.0002   -0.0001    0.0014    0.0153   -0.0063    0.0136   -0.0333
       37 PB1    5f2-      -0.0667   -0.0183    0.0051   -0.0025    0.0001   -0.0931   -0.5259    0.1948    0.2710   -0.6572
       38 PB1    6f2-      -0.1038   -0.0250    0.0088   -0.0042   -0.0046    0.0310    0.3760   -0.1561    0.4529   -1.1064
       39 PB1    7f2-      -0.0525   -0.0117    0.0041   -0.0019   -0.0037    0.0558    0.4494   -0.1778    0.2133   -0.5227
       40 PB1    4f0       -0.0000   -0.0023   -0.0000    0.0000   -0.0343    0.0174    0.0000    0.0057    0.0022   -0.0000
       41 PB1    5f0       -0.0000    0.1622    0.0000    0.0083   -0.1992    0.2512    0.0000    0.0997    0.0209   -0.0000
       42 PB1    6f0       -0.0000   -0.0041    0.0000    0.0011   -0.1830    0.0306    0.0000    0.0891   -0.1074    0.0000
       43 PB1    7f0       -0.0000   -0.0208   -0.0000   -0.0004   -0.0810   -0.0396    0.0000    0.0402   -0.0800    0.0000
       44 PB1    4f2+      -0.0013    0.0017    0.0002    0.0005    0.0002   -0.0035    0.0063    0.0152   -0.0330   -0.0137
       45 PB1    5f2+      -0.0275    0.0444    0.0021    0.0062   -0.0002    0.2260   -0.2166   -0.4729   -0.6580   -0.2706
       46 PB1    6f2+      -0.0427    0.0607    0.0036    0.0101    0.0112   -0.0752    0.1549    0.3791   -1.0997   -0.4557
       47 PB1    7f2+      -0.0216    0.0283    0.0017    0.0046    0.0089   -0.1356    0.1851    0.4316   -0.5178   -0.2153
       48 PB1    5g4-       0.0355    0.0285    0.2121   -0.2097   -0.0006   -0.0001   -0.0006    0.0006   -0.0029    0.0029
       49 PB1    6g4-       0.0793    0.0637    0.4765   -0.4712   -0.0015   -0.0001   -0.0002    0.0002   -0.0029    0.0029
       50 PB1    7g4-       0.0765    0.0618    0.4658   -0.4606   -0.0016   -0.0001    0.0002   -0.0002    0.0002   -0.0002
       51 PB1    5g2-       0.2528    0.0550   -0.0403    0.0177    0.0032    0.0028    0.0756   -0.0331    0.1724   -0.4208
       52 PB1    6g2-       0.5786    0.1264   -0.0927    0.0409    0.0060   -0.0001    0.1023   -0.0469    0.3460   -0.8439
       53 PB1    7g2-       0.5666    0.1244   -0.0913    0.0403    0.0047   -0.0083    0.0134   -0.0105    0.2723   -0.6632
       54 PB1    5g0       -0.0000    0.2001    0.0000    0.0105    0.0627    0.2117    0.0000    0.0926    0.0016   -0.0000
       55 PB1    6g0       -0.0000    0.4395    0.0000    0.0228    0.2000    0.4847    0.0000    0.2209   -0.0153    0.0000
       56 PB1    7g0       -0.0000    0.4584    0.0000    0.0241    0.1603    0.4769    0.0000    0.2114   -0.0084   -0.0000
       57 PB1    5g2+       0.1041   -0.1335   -0.0166   -0.0431   -0.0077   -0.0069    0.0311    0.0804   -0.4186   -0.1733
       58 PB1    6g2+       0.2383   -0.3070   -0.0382   -0.0992   -0.0147    0.0003    0.0421    0.1139   -0.8402   -0.3475
       59 PB1    7g2+       0.2334   -0.3019   -0.0376   -0.0978   -0.0115    0.0201    0.0055    0.0254   -0.6612   -0.2732
       60 PB1    5g4+       0.0352   -0.0287    0.2104    0.2114    0.0006    0.0001   -0.0005   -0.0006    0.0029    0.0029
       61 PB1    6g4+       0.0786   -0.0642    0.4727    0.4750    0.0015    0.0001   -0.0002   -0.0002    0.0029    0.0029
       62 PB1    7g4+       0.0759   -0.0623    0.4621    0.4644    0.0016    0.0001    0.0002    0.0002   -0.0002   -0.0002
       63 O2     1s        -0.0000    0.2192    0.0000    0.0049    0.0443    0.2198    0.0000    0.0830    0.0173   -0.0000
       64 O2     2s        -0.0000    1.7424    0.0000    0.0430    0.6262    1.4078    0.0000    0.5959    0.0236   -0.0000
       65 O2     3s        -0.0000    1.6534    0.0000    0.0460    0.1108    1.4014    0.0000    0.6215   -0.0208    0.0000
       66 O2     4s        -0.0000    0.7595    0.0000    0.0254   -0.1928    0.7312    0.0000    0.3040    0.0251   -0.0000
       67 O2     5s        -0.0000    0.2117    0.0000    0.0077   -0.0817    0.2058    0.0000    0.0857    0.0089   -0.0000
       68 O2     2pz        0.0000   -1.0355   -0.0000   -0.0458   -0.7919    1.6855    0.0000    0.3832    0.4479   -0.0000
       69 O2     3pz        0.0000   -1.1382   -0.0000   -0.0660    1.1464    1.4388    0.0000    0.3067    0.3917   -0.0000
       70 O2     4pz        0.0000   -0.6409   -0.0000   -0.0383    1.3573   -0.0598   -0.0000   -0.0343   -0.0166    0.0000
       71 O2     5pz        0.0000   -0.2161   -0.0000   -0.0118    0.2512    0.0285   -0.0000   -0.0012    0.0098   -0.0000
       72 O2     3d2-       0.0989    0.0259   -0.0107    0.0050    0.0038   -0.0055   -0.3055    0.1363   -0.7338    1.7904
       73 O2     4d2-       0.0460    0.0136   -0.0032    0.0016    0.0025    0.0184   -0.0771    0.0439   -0.5505    1.3419
       74 O2     5d2-       0.0225    0.0062   -0.0019    0.0009    0.0007    0.0144    0.0441   -0.0131   -0.1466    0.3567
       75 O2     3d0       -0.0000    0.1342    0.0000    0.0132    0.6190   -2.0983   -0.0000   -0.7386   -0.2075    0.0000
       76 O2     4d0       -0.0000    0.1139    0.0000    0.0105    0.3352   -1.5459   -0.0000   -0.5608   -0.1306    0.0000
       77 O2     5d0       -0.0000    0.0730    0.0000    0.0052    0.0043   -0.3829   -0.0000   -0.1453   -0.0222    0.0000
       78 O2     3d2+       0.0407   -0.0628   -0.0044   -0.0121   -0.0091    0.0134   -0.1258   -0.3310    1.7817    0.7374
       79 O2     4d2+       0.0189   -0.0331   -0.0013   -0.0040   -0.0060   -0.0446   -0.0318   -0.1067    1.3367    0.5527
       80 O2     5d2+       0.0093   -0.0151   -0.0008   -0.0023   -0.0018   -0.0350    0.0181    0.0318    0.3559    0.1469
       81 O2     4f2-      -0.0108   -0.0014    0.0022   -0.0009   -0.0000    0.0366    0.2689   -0.1045    0.0174   -0.0447
       82 O2     5f2-       0.0084    0.0027   -0.0011    0.0005    0.0002    0.0221    0.1590   -0.0616    0.0033   -0.0093
       83 O2     4f0       -0.0000    0.1266    0.0000    0.0068   -0.3718    0.2930    0.0000    0.0955    0.0377   -0.0000
       84 O2     5f0       -0.0000    0.0728    0.0000    0.0040   -0.1728    0.1236    0.0000    0.0423    0.0130   -0.0000
       85 O2     4f2+      -0.0045    0.0035    0.0009    0.0022    0.0001   -0.0889    0.1107    0.2538   -0.0423   -0.0184
       86 O2     5f2+       0.0035   -0.0065   -0.0005   -0.0013   -0.0004   -0.0537    0.0655    0.1495   -0.0080   -0.0038
       87 O2     5g4-      -0.0010   -0.0006   -0.0011    0.0011   -0.0000    0.0001    0.0004   -0.0004    0.0007   -0.0007
       88 O2     5g2-       0.0281    0.0064   -0.0051    0.0022   -0.0001   -0.0005   -0.0091    0.0039   -0.0121    0.0296
       89 O2     5g0        0.0000   -0.0267   -0.0000   -0.0012    0.0927   -0.0807   -0.0000   -0.0294   -0.0076    0.0000
       90 O2     5g2+       0.0116   -0.0156   -0.0021   -0.0054    0.0002    0.0012   -0.0038   -0.0094    0.0293    0.0122
       91 O2     5g4+      -0.0010    0.0006   -0.0011   -0.0011    0.0000   -0.0001    0.0004    0.0004   -0.0007   -0.0007
 
          Orbital           51        52        53        54        55        56        57        58        59        60    
          Energy            1.9279    2.5186    2.5832    2.5870    2.8480    2.8480    3.1057    3.2290    3.3637    3.3651
          Occ. No.          0.0000    0.0000    0.0000    0.0000    0.0000    0.0000    0.0000    0.0000    0.0000    0.0000
 
        1 PB1    1s         0.0293   -0.0013    0.0000   -0.0002   -0.0000   -0.0000   -0.0261   -0.0113   -0.0024    0.0000
        2 PB1    2s         0.1838   -0.0079    0.0000   -0.0015   -0.0001   -0.0000   -0.1638   -0.0708   -0.0149    0.0000
        3 PB1    3s         0.6403   -0.0269    0.0000   -0.0050   -0.0002   -0.0000   -0.5691   -0.2484   -0.0522    0.0000
        4 PB1    4s         1.8634   -0.0696    0.0000   -0.0122   -0.0007   -0.0000   -1.6314   -0.7602   -0.1556    0.0000
        5 PB1    5s         4.8711   -0.0796    0.0000   -0.0051   -0.0019   -0.0000   -3.8518   -2.6729   -0.4580    0.0000
        6 PB1    6s         4.9870    0.0604    0.0000    0.0333   -0.0017   -0.0000   -2.3535   -7.6584   -0.7462    0.0000
        7 PB1    7s        -1.5996   -0.2012   -0.0000   -0.0529    0.0011    0.0000    1.2396   -2.1781    0.0314    0.0000
        8 PB1    8s        -0.3463   -0.1725   -0.0000   -0.0428    0.0000    0.0000   -0.2823   -0.3584    0.0118   -0.0000
        9 PB1    9s        -0.1015   -0.0382    0.0000   -0.0102   -0.0000   -0.0000   -0.2687    0.0242    0.0171   -0.0000
       10 PB1    2pz        0.0079   -0.0007    0.0000   -0.0001   -0.0000   -0.0000   -0.0104    0.0004   -0.0007    0.0000
       11 PB1    3pz        0.0761   -0.0069    0.0000   -0.0013   -0.0000   -0.0000   -0.0998    0.0027   -0.0064    0.0000
       12 PB1    4pz        0.4842   -0.0396    0.0000   -0.0068   -0.0002   -0.0000   -0.6253   -0.0115   -0.0437    0.0000
       13 PB1    5pz        1.9582   -0.1204    0.0000   -0.0128   -0.0008   -0.0000   -2.3950   -0.8311   -0.2538    0.0000
       14 PB1    6pz       -1.1529   -0.4848   -0.0000   -0.0844    0.0002    0.0000   -1.3149   -4.2812   -0.3911    0.0000
       15 PB1    7pz       -2.1754   -0.2941   -0.0000   -0.0767    0.0009    0.0000    0.2467    0.2559    0.1759   -0.0000
       16 PB1    8pz        0.3820   -0.0309    0.0000   -0.0066   -0.0002   -0.0000   -0.5659    0.6961    0.0081   -0.0000
       17 PB1    9pz        0.1831    0.1368   -0.0000    0.0385   -0.0002   -0.0000    0.0277   -0.1855   -0.0534    0.0000
       18 PB1    3d2-      -0.0000    0.0000    0.0003   -0.0001   -0.0000    0.0000    0.0000    0.0000   -0.0010    0.0023
       19 PB1    4d2-      -0.0009    0.0005    0.0063   -0.0026   -0.0004    0.0010    0.0003    0.0001   -0.0199    0.0485
       20 PB1    5d2-      -0.0165    0.0063    0.0873   -0.0354   -0.0070    0.0171    0.0033    0.0008   -0.2847    0.6932
       21 PB1    6d2-      -0.0285   -0.0033   -0.0086    0.0029   -0.0051    0.0124    0.0048   -0.0006   -0.2717    0.6616
       22 PB1    7d2-      -0.0019   -0.0048   -0.0461    0.0184   -0.0001    0.0003   -0.0014    0.0001   -0.0115    0.0281
       23 PB1    8d2-       0.0055   -0.0077   -0.0905    0.0365    0.0066   -0.0161   -0.0005   -0.0015    0.1419   -0.3456
       24 PB1    3d0        0.0067   -0.0012    0.0000   -0.0003   -0.0000   -0.0000   -0.0113    0.0045   -0.0003    0.0000
       25 PB1    4d0        0.1115   -0.0195    0.0000   -0.0041   -0.0000   -0.0000   -0.1854    0.0630   -0.0068    0.0000
       26 PB1    5d0        0.0285   -0.2396   -0.0000   -0.0518   -0.0000   -0.0000   -0.8224   -0.0099   -0.0605    0.0000
       27 PB1    6d0       -2.1658   -0.4608   -0.0000   -0.0972    0.0005    0.0000   -0.0810   -0.6448   -0.0462    0.0000
       28 PB1    7d0       -1.6532   -0.2784   -0.0000   -0.0611    0.0006    0.0000    0.0110   -0.3118    0.0373   -0.0000
       29 PB1    8d0       -0.1906   -0.0403   -0.0000   -0.0032   -0.0000   -0.0000   -0.7149    0.0377   -0.0186    0.0000
       30 PB1    3d2+       0.0001   -0.0001    0.0001    0.0003    0.0000    0.0000   -0.0000   -0.0000    0.0023    0.0010
       31 PB1    4d2+       0.0022   -0.0012    0.0026    0.0062    0.0010    0.0004   -0.0006   -0.0002    0.0484    0.0200
       32 PB1    5d2+       0.0401   -0.0152    0.0359    0.0860    0.0171    0.0070   -0.0081   -0.0020    0.6912    0.2855
       33 PB1    6d2+       0.0693    0.0080   -0.0036   -0.0071    0.0124    0.0051   -0.0116    0.0013    0.6597    0.2725
       34 PB1    7d2+       0.0046    0.0115   -0.0190   -0.0446    0.0003    0.0001    0.0034   -0.0002    0.0279    0.0116
[...]
  CASPT2 EQUATION SOLUTION
--------------------------------------------------------------------------------
 
  Total nr of CASPT2 parameters:
   Before reduction:      736401
   After  reduction:      734466
 
 Variance of |WF0>:       4.8771935207
 
 The contributions to the second order correlation energy in atomic units.
-----------------------------------------------------------------------------------------------------------------------------
  IT.      VJTU        VJTI        ATVX        AIVX        VJAI        BVAT        BJAT        BJAI        TOTAL       RNORM  
-----------------------------------------------------------------------------------------------------------------------------
   1    -0.008475   -0.002744   -0.038673   -0.074148   -0.035001   -0.098972   -0.205185   -0.279868   -0.743064    0.015301
   2    -0.008534   -0.002818   -0.038782   -0.074695   -0.035363   -0.099226   -0.205485   -0.279967   -0.744871    0.002092
   3    -0.008535   -0.002825   -0.038801   -0.074724   -0.035375   -0.099250   -0.205495   -0.279950   -0.744954    0.000451
   4    -0.008531   -0.002825   -0.038793   -0.074718   -0.035373   -0.099237   -0.205480   -0.279945   -0.744903    0.000065
   5    -0.008531   -0.002825   -0.038792   -0.074717   -0.035373   -0.099236   -0.205479   -0.279945   -0.744900    0.000028
   6    -0.008532   -0.002825   -0.038793   -0.074718   -0.035373   -0.099237   -0.205480   -0.279945   -0.744902    0.000004
   7    -0.008532   -0.002825   -0.038793   -0.074718   -0.035373   -0.099237   -0.205480   -0.279945   -0.744903    0.000001
-----------------------------------------------------------------------------------------------------------------------------
 
  FINAL CASPT2 RESULT:
 
      Reference energy:      -20935.0385816775
      E2 (Non-variational):      -0.7449025381
      Shift correction:          -0.0008099200
      E2 (Variational):          -0.7457124580
      Total energy:          -20935.7842941356
      Residual norm:              0.0000001888
      Reference weight:           0.84945
 
      Contributions to the CASPT2 correlation energy
      Active & Virtual Only:         -0.1380295096
      One Inactive Excited:          -0.2887295180
      Two Inactive Excited:          -0.3181435105
 
 
++ Denominators, etc.
--------------------------------------------------------------------------------------------------------------
 Report on small energy denominators, large coefficients, and large energy contributions.
CASE  SYMM ACTIVE-MIX  NON-ACTIVE INDICES          DENOMINATOR     RHS VALUE       COEFFICIENT     CONTRIBUTION
VJTU     1  Mu1.0001  In1.023                       0.28112810      0.00000142     -0.00000551     -0.00000000
VJTU     2  Mu2.0003  In2.017                       0.82240950      0.03655349     -0.04400695     -0.00160861
VJTU     2  Mu2.0004  In2.018                       0.82242228      0.03655179     -0.04400428     -0.00160844
ATVX     1  Mu1.0001  Se1.027                       0.13028433      0.00000000     -0.00000000     -0.00000000
ATVX     1  Mu1.0002  Se1.027                       0.18957822      0.00006378      0.00317985      0.00000020
ATVX     1  Mu1.0003  Se1.027                       0.18994823     -0.00000000     -0.00000000      0.00000000
ATVX     1  Mu1.0004  Se1.027                       0.18998153     -0.00000000     -0.00000001      0.00000000
ATVX     1  Mu1.0005  Se1.027                       0.19076815      0.00000039      0.00000466      0.00000000
ATVX     1  Mu1.0001  Se1.028                       0.21704923     -0.00000025      0.00000108     -0.00000000
ATVX     1  Mu1.0002  Se1.028                       0.27634312     -0.00001188      0.00004025     -0.00000000
ATVX     1  Mu1.0003  Se1.028                       0.27671313     -0.00000007      0.00000027     -0.00000000
ATVX     1  Mu1.0004  Se1.028                       0.27674643     -0.00000019      0.00000067     -0.00000000
ATVX     1  Mu1.0005  Se1.028                       0.27753305      0.00026059      0.00050450      0.00000013
ATVX     1  Mu1.0001  Se1.029                       0.21704923      0.00682101     -0.02877991     -0.00019631
ATVX     1  Mu1.0002  Se1.029                       0.27634313      0.00000001     -0.00000004     -0.00000000
ATVX     1  Mu1.0003  Se1.029                       0.27671313      0.00204952     -0.00710983     -0.00001457
ATVX     1  Mu1.0004  Se1.029                       0.27674643      0.00515764     -0.01789080     -0.00009227
ATVX     1  Mu1.0005  Se1.029                       0.27753305      0.00000001      0.00000001      0.00000000
ATVX     1  Mu1.0028  Se1.029                       0.88575081     -0.02425252      0.02756187     -0.00066844
ATVX     1  Mu1.0001  Se1.030                       0.23583834      0.00000000     -0.00000000     -0.00000000
ATVX     1  Mu1.0002  Se1.030                       0.29513224     -0.00036434     -0.00642868      0.00000234
ATVX     1  Mu1.0003  Se1.030                       0.29550224      0.00000000      0.00000000      0.00000000
ATVX     1  Mu1.0004  Se1.030                       0.29553554      0.00000000      0.00000001      0.00000000
ATVX     1  Mu1.0005  Se1.030                       0.29632216     -0.00000132     -0.00000997      0.00000000
ATVX     1  Mu1.0006  Se1.030                       0.53534817      0.02084637     -0.03695898     -0.00077046
ATVX     2  Mu2.0001  Se2.023                       0.08044952      0.00019513     -0.00167190     -0.00000033
ATVX     2  Mu2.0002  Se2.023                       0.08046291     -0.00000005      0.00000039     -0.00000000
ATVX     2  Mu2.0003  Se2.023                       0.24925145      0.00033986     -0.00464685     -0.00000158
ATVX     2  Mu2.0004  Se2.023                       0.24926076     -0.00000011      0.00000152     -0.00000000
ATVX     2  Mu2.0001  Se2.024                       0.08045272      0.00000005     -0.00000039     -0.00000000
ATVX     2  Mu2.0002  Se2.024                       0.08046611      0.00019474     -0.00167027     -0.00000033
ATVX     2  Mu2.0003  Se2.024                       0.24925465     -0.00000011      0.00000153     -0.00000000
ATVX     2  Mu2.0004  Se2.024                       0.24926396     -0.00034076      0.00465132     -0.00000158
ATVX     2  Mu2.0001  Se2.025                       0.16928265     -0.00018534     -0.00134061      0.00000025
ATVX     2  Mu2.0002  Se2.025                       0.16929604      0.00000004      0.00000032      0.00000000
ATVX     2  Mu2.0001  Se2.026                       0.16928492     -0.00000004     -0.00000032      0.00000000
ATVX     2  Mu2.0002  Se2.026                       0.16929831     -0.00018476     -0.00134311      0.00000025
BJAIM    1  Se2.035 In1.021 Se2.040 In1.022         5.78028182     -0.19559967      0.03382900     -0.00661694
--
 
   (Skipping property calculation,
    use PROP keyword to activate)
--
 
++ CASPT2 computation for group   5
 
********************************************************************************
 Multi-State initialization phase begins for group   5
--------------------------------------------------------------------------------
  THE FOCK MATRIX IS MODIFIED BY KEYWORD FOCKTYPE=G1      
********************************************************************************
 Compute H0 matrices for state    5
--------------------------------------------------------------------------------
--------------------------------------------------------------------------------
 H0 matrices have been computed.
 
********************************************************************************
  CASPT2 EQUATION SOLUTION
--------------------------------------------------------------------------------
 
  Total nr of CASPT2 parameters:
   Before reduction:      736401
   After  reduction:      734888
 
 Variance of |WF0>:       4.8855167644
 
 The contributions to the second order correlation energy in atomic units.
-----------------------------------------------------------------------------------------------------------------------------
  IT.      VJTU        VJTI        ATVX        AIVX        VJAI        BVAT        BJAT        BJAI        TOTAL       RNORM  
-----------------------------------------------------------------------------------------------------------------------------
   1    -0.011330   -0.003235   -0.036561   -0.072673   -0.034855   -0.100994   -0.205311   -0.279881   -0.744839    0.014776
   2    -0.011421   -0.003305   -0.036647   -0.073193   -0.035202   -0.101246   -0.205599   -0.279971   -0.746584    0.001929
   3    -0.011427   -0.003312   -0.036661   -0.073217   -0.035212   -0.101268   -0.205606   -0.279956   -0.746659    0.000399
   4    -0.011422   -0.003312   -0.036655   -0.073214   -0.035212   -0.101258   -0.205592   -0.279951   -0.746615    0.000049
   5    -0.011422   -0.003312   -0.036654   -0.073213   -0.035211   -0.101256   -0.205591   -0.279951   -0.746611    0.000022
   6    -0.011422   -0.003312   -0.036654   -0.073213   -0.035211   -0.101257   -0.205592   -0.279951   -0.746613    0.000004
-----------------------------------------------------------------------------------------------------------------------------
 
  FINAL CASPT2 RESULT:
 
      Reference energy:      -20935.0256969409
      E2 (Non-variational):      -0.7466131410
      Shift correction:          -0.0008772132
      E2 (Variational):          -0.7474903542
      Total energy:          -20935.7731872950
      Residual norm:              0.0000009083
      Reference weight:           0.84745
 
      Contributions to the CASPT2 correlation energy
      Active & Virtual Only:         -0.1379109587
      One Inactive Excited:          -0.2902271208
      Two Inactive Excited:          -0.3184750615
 
 
++ Denominators, etc.
--------------------------------------------------------------------------------------------------------------
 Report on small energy denominators, large coefficients, and large energy contributions.
CASE  SYMM ACTIVE-MIX  NON-ACTIVE INDICES          DENOMINATOR     RHS VALUE       COEFFICIENT     CONTRIBUTION
VJTU     1  Mu1.0001  In1.023                       0.28127620      0.01669056     -0.05437234     -0.00090750
VJTU     1  Mu1.0011  In1.023                       0.88655737     -0.02254647      0.02589541     -0.00058385
VJTU     2  Mu2.0002  In2.017                       0.58815356     -0.00228398      0.02583333     -0.00005900
VJTU     2  Mu2.0004  In2.017                       0.82664854     -0.03741048      0.04470225     -0.00167233
VJTU     2  Mu2.0001  In2.018                       0.58814186      0.00228261     -0.02583202     -0.00005896
VJTU     2  Mu2.0003  In2.018                       0.82663684     -0.03741132      0.04470387     -0.00167243
ATVX     1  Mu1.0001  Se1.027                       0.13543711      0.00000000     -0.00000000     -0.00000000
ATVX     1  Mu1.0002  Se1.027                       0.19021760      0.00014232      0.00279527      0.00000040
ATVX     1  Mu1.0003  Se1.027                       0.19055491     -0.00000000      0.00000000     -0.00000000
ATVX     1  Mu1.0004  Se1.027                       0.19065224      0.00000018      0.00000937      0.00000000
ATVX     1  Mu1.0005  Se1.027                       0.19087015     -0.00000000      0.00000000     -0.00000000
ATVX     1  Mu1.0001  Se1.028                       0.22249586      0.00000000     -0.00000000     -0.00000000
ATVX     1  Mu1.0002  Se1.028                       0.27727635     -0.00001171      0.00004576     -0.00000000
ATVX     1  Mu1.0003  Se1.028                       0.27761365      0.00000006     -0.00000063     -0.00000000
ATVX     1  Mu1.0004  Se1.028                       0.27771098      0.00021309     -0.00205043     -0.00000044
ATVX     1  Mu1.0005  Se1.028                       0.27792889      0.00000000     -0.00000001     -0.00000000
ATVX     1  Mu1.0029  Se1.028                       0.88282423      0.02337306     -0.02648913     -0.00061913
ATVX     1  Mu1.0001  Se1.029                       0.22249586      0.00000024     -0.00000092     -0.00000000
ATVX     1  Mu1.0002  Se1.029                       0.27727635      0.00000000     -0.00000000     -0.00000000
ATVX     1  Mu1.0003  Se1.029                       0.27761365      0.00020911     -0.00203732     -0.00000043
ATVX     1  Mu1.0004  Se1.029                       0.27771098     -0.00000007      0.00000063     -0.00000000
ATVX     1  Mu1.0005  Se1.029                       0.27792889      0.00000635     -0.00005145     -0.00000000
ATVX     1  Mu1.0001  Se1.030                       0.24181389      0.00000000     -0.00000000     -0.00000000
ATVX     1  Mu1.0002  Se1.030                       0.29659438     -0.00057036     -0.00534570      0.00000305
ATVX     1  Mu1.0003  Se1.030                       0.29693168      0.00000000     -0.00000000     -0.00000000
ATVX     1  Mu1.0004  Se1.030                       0.29702901     -0.00000117     -0.00001711      0.00000000
ATVX     1  Mu1.0005  Se1.030                       0.29724692      0.00000000     -0.00000000     -0.00000000
ATVX     1  Mu1.0007  Se1.030                       0.53508937     -0.02115434      0.03752675     -0.00079385
ATVX     2  Mu2.0001  Se2.023                       0.08276963     -0.00000003      0.00000000     -0.00000000
ATVX     2  Mu2.0002  Se2.023                       0.08277998      0.00021945     -0.00000488     -0.00000000
ATVX     2  Mu2.0003  Se2.023                       0.25300050      0.00000025     -0.00000058     -0.00000000
ATVX     2  Mu2.0004  Se2.023                       0.25300821     -0.00180831      0.00423436     -0.00000766
ATVX     2  Mu2.0001  Se2.024                       0.08277241      0.00021947     -0.00000496     -0.00000000
ATVX     2  Mu2.0002  Se2.024                       0.08278276      0.00000003     -0.00000000     -0.00000000
ATVX     2  Mu2.0003  Se2.024                       0.25300328     -0.00180754      0.00423075     -0.00000765
ATVX     2  Mu2.0004  Se2.024                       0.25301098     -0.00000025      0.00000058     -0.00000000
ATVX     2  Mu2.0001  Se2.025                       0.17181823      0.00000010     -0.00000077     -0.00000000
ATVX     2  Mu2.0002  Se2.025                       0.17182858     -0.00071344      0.00525065     -0.00000375
ATVX     2  Mu2.0008  Se2.025                       0.58055332      0.01528409     -0.02514753     -0.00038436
ATVX     2  Mu2.0001  Se2.026                       0.17181981     -0.00071333      0.00525036     -0.00000375
ATVX     2  Mu2.0002  Se2.026                       0.17183016     -0.00000010      0.00000077     -0.00000000
ATVX     2  Mu2.0007  Se2.026                       0.58054716     -0.01528336      0.02514656     -0.00038432
BJAIM    1  Se2.035 In1.021 Se2.040 In1.022         5.77977478     -0.19561968      0.03383543     -0.00661888
--
 
   (Skipping property calculation,
    use PROP keyword to activate)
--
 
  Total CASPT2 energies:
::    CASPT2 Root  1     Total energy: -20935.86226486
::    CASPT2 Root  2     Total energy: -20935.79940459
::    CASPT2 Root  3     Total energy: -20935.78429411
::    CASPT2 Root  4     Total energy: -20935.78429414
::    CASPT2 Root  5     Total energy: -20935.77318730
 
++ Multi-State CASPT2 section:
********************************************************************************
  MULTI-STATE CASPT2 SECTION
--------------------------------------------------------------------------------
 
  Output diagonal energies have been shifted. Add  -20935.0000000000
 
  Effective Hamiltonian matrix (Symmetric):
 
                1               2               3               4               5
   1        -0.86226486
   2         0.00000000     -0.79940459
   3         0.00000000      0.00000105     -0.78429411
   4        -0.00000102      0.00000000      0.00000000     -0.78429414
   5        -0.00283725      0.00000000      0.00000000     -0.00000085     -0.77318730
 
       Total MS-CASPT2 energies:
::    MS-CASPT2 Root  1     Total energy: -20935.86235514
::    MS-CASPT2 Root  2     Total energy: -20935.79940459
::    MS-CASPT2 Root  3     Total energy: -20935.78429414
::    MS-CASPT2 Root  4     Total energy: -20935.78429411
::    MS-CASPT2 Root  5     Total energy: -20935.77309702
 
       Eigenvectors:
            0.99949415      0.00000000     -0.00001574      0.00000000     -0.03180310
           -0.00000000      1.00000000      0.00000000      0.00006925     -0.00000000
           -0.00000000     -0.00006925     -0.00003270      1.00000000      0.00000001
            0.00001341     -0.00000001      1.00000000      0.00003270     -0.00007342
            0.03180310      0.00000000      0.00007295     -0.00000000      0.99949415
 
--
 
  THE ORIGINAL CI ARRAYS ARE NOW MIXED AS LINEAR
  COMBINATIONS, GIVEN BY THE EIGENVECTORS.
  A NEW JOBIPH FILE NAMED 'JOBMIX' IS PREPARED.
********************************************************************************
 
++ Mixed CI coefficients:
  The CI coefficients for the MIXED state nr.   1
--------------------------------------------------------------------------------
 CI COEFFICIENTS LARGER THAN  5.00E-02
  Occupation of active orbitals, and spin coupling
  of open shells. (u,d: Spin up or down).
  SGUGA info is (Midvert:IsyUp:UpperWalk/LowerWalk)
        Conf  SGUGA info        Occupation    Coefficient         Weight
          55  ( 4:1:   1/   4)   uu0 22uu       -0.998029       0.996062
 
  The CI coefficients for the MIXED state nr.   2
--------------------------------------------------------------------------------
 CI COEFFICIENTS LARGER THAN  5.00E-02
  Occupation of active orbitals, and spin coupling
  of open shells. (u,d: Spin up or down).
  SGUGA info is (Midvert:IsyUp:UpperWalk/LowerWalk)
        Conf  SGUGA info        Occupation    Coefficient         Weight
           2  ( 1:1:   2/   1)   2uu 2u0u       -0.703171       0.494449
          19  ( 3:2:   1/   1)   2uu u2u0        0.703201       0.494491
 
  The CI coefficients for the MIXED state nr.   3
--------------------------------------------------------------------------------
 CI COEFFICIENTS LARGER THAN  5.00E-02
  Occupation of active orbitals, and spin coupling
  of open shells. (u,d: Spin up or down).
  SGUGA info is (Midvert:IsyUp:UpperWalk/LowerWalk)
        Conf  SGUGA info        Occupation    Coefficient         Weight
           1  ( 1:1:   1/   1)   2uu 2uu0        0.704050       0.495686
          21  ( 3:2:   3/   1)   2uu u20u       -0.704128       0.495797
 
  The CI coefficients for the MIXED state nr.   4
--------------------------------------------------------------------------------
 CI COEFFICIENTS LARGER THAN  5.00E-02
  Occupation of active orbitals, and spin coupling
  of open shells. (u,d: Spin up or down).
  SGUGA info is (Midvert:IsyUp:UpperWalk/LowerWalk)
        Conf  SGUGA info        Occupation    Coefficient         Weight
           2  ( 1:1:   2/   1)   2uu 2u0u        0.704104       0.495762
          19  ( 3:2:   1/   1)   2uu u2u0        0.704075       0.495721
 
  The CI coefficients for the MIXED state nr.   5
--------------------------------------------------------------------------------
 CI COEFFICIENTS LARGER THAN  5.00E-02
  Occupation of active orbitals, and spin coupling
  of open shells. (u,d: Spin up or down).
  SGUGA info is (Midvert:IsyUp:UpperWalk/LowerWalk)
        Conf  SGUGA info        Occupation    Coefficient         Weight
           1  ( 1:1:   1/   1)   2uu 2uu0       -0.700638       0.490894
          21  ( 3:2:   3/   1)   2uu u20u       -0.700559       0.490783
          58  ( 4:1:   1/   5)   u0u 22uu       -0.094585       0.008946
 
--
 
--- Stop Module: caspt2 at Sun Dec  7 11:49:47 2025 /rc=_RC_ALL_IS_WELL_ ---
*** files: xmldump
    saved to directory /home/charlie/input_examples/molcas/pbo-so
--- Module caspt2 spent 9 seconds ---

.##################.
.# Happy landing! #.
.##################.

    Timing: Wall=55.36 User=39.14 System=6.11
