[Molden Format]
[N_Atoms]
 2
[Atoms] (AU)
PB1         1     82           0.00000000      0.00000000      0.00000000
O2          2      8           0.00000000      0.00000000      2.26767135
[5D]
[7F]
[9G]
[Charge] (Mulliken)
 0.935564277369451
 -0.935564277372531
[GTO] (AU)
   1
   s  25
  5.328630810E+07  1.236950014E-03
  1.256309160E+07  1.574860018E-03
  3.649632710E+06  4.110740047E-03
  1.155667460E+06  7.419270085E-03
  3.936623720E+05  1.505097017E-02
  1.418807120E+05  2.801240032E-02
  5.371582050E+04  5.327655061E-02
  2.115592390E+04  9.863867113E-02
  8.592021510E+03  1.784707520E-01
  3.587699110E+03  2.853878933E-01
  1.543128350E+03  3.347899638E-01
  6.827511080E+02  1.936040522E-01
  3.108099220E+02  2.521078029E-02
  1.473366870E+02  1.887990022E-03
  7.202748890E+01 -1.607780018E-03
  3.606887380E+01  1.227380014E-03
  1.791463700E+01 -8.634500099E-04
  8.785239350E+00  5.379000062E-04
  4.254596090E+00 -2.847500033E-04
  1.874160290E+00  1.315400015E-04
  7.852681400E-01 -5.940000068E-05
  2.936902700E-01  2.581000030E-05
  1.001445400E-01 -1.347000015E-05
  4.005781000E-02  7.180000082E-06
  1.602312000E-02 -2.170000025E-06
   s  25
  5.328630810E+07 -4.867399993E-04
  1.256309160E+07 -6.210399991E-04
  3.649632710E+06 -1.624009998E-03
  1.155667460E+06 -2.945659996E-03
  3.936623720E+05 -6.018569991E-03
  1.418807120E+05 -1.134670998E-02
  5.371582050E+04 -2.202649997E-02
  2.115592390E+04 -4.223382994E-02
  8.592021510E+03 -8.111528988E-02
  3.587699110E+03 -1.441983098E-01
  1.543128350E+03 -1.987243997E-01
  6.827511080E+02 -8.446465988E-02
  3.108099220E+02  3.640262595E-01
  1.473366870E+02  5.906008191E-01
  7.202748890E+01  1.970667697E-01
  3.606887380E+01  8.502279988E-03
  1.791463700E+01 -4.710999993E-04
  8.785239350E+00  4.187899994E-04
  4.254596090E+00 -3.956299994E-04
  1.874160290E+00  2.084199997E-04
  7.852681400E-01 -9.305999986E-05
  2.936902700E-01  4.284999994E-05
  1.001445400E-01 -2.069999997E-05
  4.005781000E-02  1.169999998E-05
  1.602312000E-02 -3.519999995E-06
   s  25
  5.328630810E+07  2.342600012E-04
  1.256309160E+07  2.990000015E-04
  3.649632710E+06  7.821500040E-04
  1.155667460E+06  1.419780007E-03
  3.936623720E+05  2.904570015E-03
  1.418807120E+05  5.487050028E-03
  5.371582050E+04  1.069073005E-02
  2.115592390E+04  2.061465010E-02
  8.592021510E+03  4.003113020E-02
  3.587699110E+03  7.249952037E-02
  1.543128350E+03  1.032943005E-01
  6.827511080E+02  3.926337020E-02
  3.108099220E+02 -2.910994715E-01
  1.473366870E+02 -6.419320633E-01
  7.202748890E+01 -3.270401017E-02
  3.606887380E+01  9.017930946E-01
  1.791463700E+01  3.933237120E-01
  8.785239350E+00  1.011903005E-02
  4.254596090E+00  4.959670025E-03
  1.874160290E+00 -1.985930010E-03
  7.852681400E-01  7.697800039E-04
  2.936902700E-01 -3.546700018E-04
  1.001445400E-01  1.572600008E-04
  4.005781000E-02 -9.306000047E-05
  1.602312000E-02  2.774000014E-05
   s  25
  5.328630810E+07 -1.181600002E-04
  1.256309160E+07 -1.508400002E-04
  3.649632710E+06 -3.945700005E-04
  1.155667460E+06 -7.164500010E-04
  3.936623720E+05 -1.465910002E-03
  1.418807120E+05 -2.771440004E-03
  5.371582050E+04 -5.401930008E-03
  2.115592390E+04 -1.043958001E-02
  8.592021510E+03 -2.030022003E-02
  3.587699110E+03 -3.701810005E-02
  1.543128350E+03 -5.295906007E-02
  6.827511080E+02 -1.999612003E-02
  3.108099220E+02  1.679855002E-01
  1.473366870E+02  3.963747806E-01
  7.202748890E+01  6.625760009E-03
  3.606887380E+01 -1.059483531E+00
  1.791463700E+01 -4.029535106E-01
  8.785239350E+00  1.084028972E+00
  4.254596090E+00  4.827815807E-01
  1.874160290E+00  2.593620004E-03
  7.852681400E-01  5.248710007E-03
  2.936902700E-01 -1.858980003E-03
  1.001445400E-01  1.185970002E-03
  4.005781000E-02 -5.580600008E-04
  1.602312000E-02  1.727800002E-04
   s  25
  5.328630810E+07  5.300000027E-05
  1.256309160E+07  6.766000034E-05
  3.649632710E+06  1.770000009E-04
  1.155667460E+06  3.213600016E-04
  3.936623720E+05  6.577500033E-04
  1.418807120E+05  1.243150006E-03
  5.371582050E+04  2.425340012E-03
  2.115592390E+04  4.683520024E-03
  8.592021510E+03  9.129010046E-03
  3.587699110E+03  1.662228008E-02
  1.543128350E+03  2.394591012E-02
  6.827511080E+02  8.720580044E-03
  3.108099220E+02 -7.714292039E-02
  1.473366870E+02 -1.893274310E-01
  7.202748890E+01  3.744780019E-03
  3.606887380E+01  5.773593929E-01
  1.791463700E+01  2.458197012E-01
  8.785239350E+00 -1.013025295E+00
  4.254596090E+00 -6.041347931E-01
  1.874160290E+00  1.083999485E+00
  7.852681400E-01  5.120033026E-01
  2.936902700E-01 -1.498951008E-02
  1.001445400E-01  1.263344006E-02
  4.005781000E-02 -6.834470035E-03
  1.602312000E-02  2.081510011E-03
   s  25
  5.328630810E+07 -1.783000009E-05
  1.256309160E+07 -2.275000012E-05
  3.649632710E+06 -5.954000030E-05
  1.155667460E+06 -1.080800005E-04
  3.936623720E+05 -2.212700011E-04
  1.418807120E+05 -4.180500021E-04
  5.371582050E+04 -8.161500041E-04
  2.115592390E+04 -1.574600008E-03
  8.592021510E+03 -3.074200016E-03
  3.587699110E+03 -5.585690028E-03
  1.543128350E+03 -8.084560041E-03
  6.827511080E+02 -2.866150014E-03
  3.108099220E+02  2.592346013E-02
  1.473366870E+02  6.483622033E-02
  7.202748890E+01 -2.701190014E-03
  3.606887380E+01 -1.994349110E-01
  1.791463700E+01 -9.313260047E-02
  8.785239350E+00  4.037701320E-01
  4.254596090E+00  2.434146012E-01
  1.874160290E+00 -6.191380731E-01
  7.852681400E-01 -4.904058425E-01
  2.936902700E-01  6.659244834E-01
  1.001445400E-01  6.995006435E-01
  4.005781000E-02 -1.205948006E-02
  1.602312000E-02  2.089964011E-02
   s  25
  5.328630810E+07  2.870999994E-05
  1.256309160E+07  3.665999992E-05
  3.649632710E+06  9.586999979E-05
  1.155667460E+06  1.741699996E-04
  3.936623720E+05  3.561299992E-04
  1.418807120E+05  6.742499985E-04
  5.371582050E+04  1.311869997E-03
  2.115592390E+04  2.544949994E-03
  8.592021510E+03  4.927329989E-03
  3.587699110E+03  9.073529980E-03
  1.543128350E+03  1.281818997E-02
  6.827511080E+02  5.213289988E-03
  3.108099220E+02 -4.363056990E-02
  1.473366870E+02 -1.006623398E-01
  7.202748890E+01 -5.914299987E-03
  3.606887380E+01  3.543929492E-01
  1.791463700E+01  9.952040978E-02
  8.785239350E+00 -6.172677186E-01
  4.254596090E+00 -5.890026287E-01
  1.874160290E+00  1.899163236E+00
  7.852681400E-01 -5.121744089E-01
  2.936902700E-01 -1.678218206E+00
  1.001445400E-01  1.125221687E+00
  4.005781000E-02  2.970878893E-01
  1.602312000E-02  3.191153993E-02
   s  25
  5.328630810E+07 -3.665000001E-05
  1.256309160E+07 -4.678000002E-05
  3.649632710E+06 -1.223800000E-04
  1.155667460E+06 -2.222200001E-04
  3.936623720E+05 -4.547600002E-04
  1.418807120E+05 -8.598700003E-04
  5.371582050E+04 -1.676750001E-03
  2.115592390E+04 -3.241570001E-03
  8.592021510E+03 -6.311570002E-03
  3.587699110E+03 -1.152345000E-02
  1.543128350E+03 -1.655581001E-02
  6.827511080E+02 -6.136880002E-03
  3.108099220E+02  5.459062002E-02
  1.473366870E+02  1.337947001E-01
  7.202748890E+01 -4.165070002E-03
  3.606887380E+01 -4.469998202E-01
  1.791463700E+01 -1.606160901E-01
  8.785239350E+00  9.643202904E-01
  4.254596090E+00  6.920826203E-01
  1.874160290E+00 -3.644137671E+00
  7.852681400E-01  4.045035152E+00
  2.936902700E-01 -1.628255851E+00
  1.001445400E-01 -1.060522590E+00
  4.005781000E-02  1.537642921E+00
  1.602312000E-02 -1.423683301E-01
   s  25
  5.328630810E+07  3.874999995E-05
  1.256309160E+07  4.926999994E-05
  3.649632710E+06  1.296899998E-04
  1.155667460E+06  2.333099997E-04
  3.936623720E+05  4.847999994E-04
  1.418807120E+05  8.936799989E-04
  5.371582050E+04  1.816889998E-03
  2.115592390E+04  3.284589996E-03
  8.592021510E+03  7.083299992E-03
  3.587699110E+03  1.096929999E-02
  1.543128350E+03  2.097676997E-02
  6.827511080E+02 -3.321939996E-03
  3.108099220E+02 -3.074178996E-02
  1.473366870E+02 -2.171366597E-01
  7.202748890E+01  1.900215298E-01
  3.606887380E+01  9.785216988E-02
  1.791463700E+01  9.513469789E-01
  8.785239350E+00 -2.702411557E+00
  4.254596090E+00  1.903745028E+00
  1.874160290E+00  1.446591798E+00
  7.852681400E-01 -4.101474305E+00
  2.936902700E-01  4.843351434E+00
  1.001445400E-01 -4.565887485E+00
  4.005781000E-02  2.636074277E+00
  1.602312000E-02 -2.467780697E-01
   p  22
  1.842423260E+07  3.414000013E-05
  3.401762550E+06  8.940000033E-05
  7.896354750E+05  2.612100010E-04
  2.116242280E+05  7.224400027E-04
  6.340410810E+04  2.050440008E-03
  2.092497500E+04  5.939360022E-03
  7.562848980E+03  1.738611006E-02
  2.974219010E+03  4.974683018E-02
  1.257787810E+03  1.298002305E-01
  5.633720440E+02  2.746762310E-01
  2.639091290E+02  3.890253014E-01
  1.277845750E+02  2.740171310E-01
  6.194032230E+01  6.050755022E-02
  3.120513120E+01  6.060000022E-05
  1.558105980E+01  6.734900025E-04
  7.652206910E+00 -4.211500015E-04
  3.695529680E+00  1.615600006E-04
  1.634097750E+00 -6.057000022E-05
  6.924560600E-01  2.478000009E-05
  1.895173600E-01 -6.940000025E-06
  5.915108000E-02  3.590000013E-06
  2.366043000E-02 -1.450000005E-06
   p  22
  1.842423260E+07 -1.767000016E-05
  3.401762550E+06 -4.632000043E-05
  7.896354750E+05 -1.355700012E-04
  2.116242280E+05 -3.759000035E-04
  6.340410810E+04 -1.071880010E-03
  2.092497500E+04 -3.123060029E-03
  7.562848980E+03 -9.248580085E-03
  2.974219010E+03 -2.691427025E-02
  1.257787810E+03 -7.263240067E-02
  5.633720440E+02 -1.609142615E-01
  2.639091290E+02 -2.370284122E-01
  1.277845750E+02 -6.384611059E-02
  6.194032230E+01  4.374379440E-01
  3.120513120E+01  5.380813949E-01
  1.558105980E+01  1.456412713E-01
  7.652206910E+00  6.029020055E-03
  3.695529680E+00  4.061100037E-04
  1.634097750E+00 -1.324600012E-04
  6.924560600E-01 -6.880000063E-06
  1.895173600E-01 -1.460000013E-06
  5.915108000E-02  8.600000079E-07
  2.366043000E-02 -2.500000023E-07
   p  22
  1.842423260E+07  8.880000012E-06
  3.401762550E+06  2.328000003E-05
  7.896354750E+05  6.815000009E-05
  2.116242280E+05  1.891100003E-04
  6.340410810E+04  5.397100007E-04
  2.092497500E+04  1.575330002E-03
  7.562848980E+03  4.675800006E-03
  2.974219010E+03  1.367161002E-02
  1.257787810E+03  3.717380005E-02
  5.633720440E+02  8.343390011E-02
  2.639091290E+02  1.238940202E-01
  1.277845750E+02  1.389920002E-02
  6.194032230E+01 -3.520774905E-01
  3.120513120E+01 -4.404665506E-01
  1.558105980E+01  3.097363804E-01
  7.652206910E+00  7.197640210E-01
  3.695529680E+00  2.218572203E-01
  1.634097750E+00  6.526410009E-03
  6.924560600E-01  9.570300013E-04
  1.895173600E-01 -2.208700003E-04
  5.915108000E-02  1.018500001E-04
  2.366043000E-02 -4.199000006E-05
   p  22
  1.842423260E+07 -3.730000009E-06
  3.401762550E+06 -9.770000023E-06
  7.896354750E+05 -2.861000007E-05
  2.116242280E+05 -7.946000019E-05
  6.340410810E+04 -2.265000005E-04
  2.092497500E+04 -6.628500016E-04
  7.562848980E+03 -1.962220005E-03
  2.974219010E+03 -5.767900014E-03
  1.257787810E+03 -1.562655004E-02
  5.633720440E+02 -3.543257008E-02
  2.639091290E+02 -5.206461012E-02
  1.277845750E+02 -4.920150012E-03
  6.194032230E+01  1.672620704E-01
  3.120513120E+01  1.981839705E-01
  1.558105980E+01 -2.017435005E-01
  7.652206910E+00 -5.522844613E-01
  3.695529680E+00  7.636253018E-02
  1.634097750E+00  7.631020118E-01
  6.924560600E-01  3.435752908E-01
  1.895173600E-01  1.422586003E-02
  5.915108000E-02 -1.939390005E-03
  2.366043000E-02  6.866500016E-04
   p  22
  1.842423260E+07  9.400000005E-07
  3.401762550E+06  2.470000001E-06
  7.896354750E+05  7.230000004E-06
  2.116242280E+05  2.007000001E-05
  6.340410810E+04  5.726000003E-05
  2.092497500E+04  1.673800001E-04
  7.562848980E+03  4.965000003E-04
  2.974219010E+03  1.455800001E-03
  1.257787810E+03  3.958940002E-03
  5.633720440E+02  8.938030005E-03
  2.639091290E+02  1.324649001E-02
  1.277845750E+02  9.752700005E-04
  6.194032230E+01 -4.245236002E-02
  3.120513120E+01 -5.192693003E-02
  1.558105980E+01  5.703470003E-02
  7.652206910E+00  1.476908201E-01
  3.695529680E+00 -2.589337001E-02
  1.634097750E+00 -2.978299302E-01
  6.924560600E-01 -6.780262003E-02
  1.895173600E-01  5.867132803E-01
  5.915108000E-02  5.196539603E-01
  2.366043000E-02  4.494101002E-02
   p  22
  1.842423260E+07 -1.829999992E-06
  3.401762550E+06 -4.789999980E-06
  7.896354750E+05 -1.405999994E-05
  2.116242280E+05 -3.885999984E-05
  6.340410810E+04 -1.116799995E-04
  2.092497500E+04 -3.226799987E-04
  7.562848980E+03 -9.728299960E-04
  2.974219010E+03 -2.792969988E-03
  1.257787810E+03 -7.798849968E-03
  5.633720440E+02 -1.701023993E-02
  2.639091290E+02 -2.671882989E-02
  1.277845750E+02  6.937299971E-04
  6.194032230E+01  7.662063968E-02
  3.120513120E+01  1.163870595E-01
  1.558105980E+01 -1.444472194E-01
  7.652206910E+00 -2.445230390E-01
  3.695529680E+00 -3.553463985E-02
  1.634097750E+00  9.658554260E-01
  6.924560600E-01 -6.801276172E-01
  1.895173600E-01 -7.634828569E-01
  5.915108000E-02  7.113713571E-01
  2.366043000E-02  3.107648787E-01
   p  22
  1.842423260E+07  2.300000001E-06
  3.401762550E+06  6.020000004E-06
  7.896354750E+05  1.763000001E-05
  2.116242280E+05  4.893000003E-05
  6.340410810E+04  1.397200001E-04
  2.092497500E+04  4.079300003E-04
  7.562848980E+03  1.211920001E-03
  2.974219010E+03  3.548400002E-03
  1.257787810E+03  9.667880006E-03
  5.633720440E+02  2.180330001E-02
  2.639091290E+02  3.241892002E-02
  1.277845750E+02  2.039900001E-03
  6.194032230E+01 -1.051753501E-01
  3.120513120E+01 -1.305371801E-01
  1.558105980E+01  1.554287101E-01
  7.652206910E+00  4.001477703E-01
  3.695529680E+00 -1.344820101E-01
  1.634097750E+00 -1.284518431E+00
  6.924560600E-01  1.649802431E+00
  1.895173600E-01 -6.292610704E-01
  5.915108000E-02 -6.210099704E-01
  2.366043000E-02  1.051517131E+00
   p  22
  1.842423260E+07 -2.690000000E-06
  3.401762550E+06 -7.110000001E-06
  7.896354750E+05 -2.053000000E-05
  2.116242280E+05 -5.849000001E-05
  6.340410810E+04 -1.596900000E-04
  2.092497500E+04 -4.994500001E-04
  7.562848980E+03 -1.344780000E-03
  2.974219010E+03 -4.470710000E-03
  1.257787810E+03 -1.036391000E-02
  5.633720440E+02 -2.880567000E-02
  2.639091290E+02 -2.930363000E-02
  1.277845750E+02 -2.484149000E-02
  6.194032230E+01  1.841184600E-01
  3.120513120E+01  2.547816000E-02
  1.558105980E+01  6.145623001E-02
  7.652206910E+00 -1.034943260E+00
  3.695529680E+00  1.282984450E+00
  1.634097750E+00  8.496119001E-02
  6.924560600E-01 -1.230658690E+00
  1.895173600E-01  1.688111050E+00
  5.915108000E-02 -2.095079440E+00
  2.366043000E-02  1.385603380E+00
   d  16
  8.592021510E+03  4.089000021E-04
  3.587699110E+03  1.190200006E-03
  1.543128350E+03  5.975890030E-03
  6.827511080E+02  2.488366013E-02
  3.108099220E+02  8.869422045E-02
  1.473366870E+02  2.308485612E-01
  7.202748890E+01  3.897380720E-01
  3.606887380E+01  3.474977618E-01
  1.791463700E+01  1.199172706E-01
  8.785239350E+00  8.944650045E-03
  4.254596090E+00  1.091020006E-03
  1.874160290E+00 -2.920200015E-04
  7.852681400E-01  1.423300007E-04
  2.936902700E-01 -6.671000034E-05
  1.174761000E-01  3.346000017E-05
  4.699044000E-02 -1.137000006E-05
   d  16
  8.592021510E+03 -2.169600000E-04
  3.587699110E+03 -6.266800001E-04
  1.543128350E+03 -3.195890000E-03
  6.827511080E+02 -1.331531000E-02
  3.108099220E+02 -4.852422001E-02
  1.473366870E+02 -1.275266900E-01
  7.202748890E+01 -2.105324400E-01
  3.606887380E+01 -1.032111900E-01
  1.791463700E+01  3.004581000E-01
  8.785239350E+00  5.351908301E-01
  4.254596090E+00  2.803546800E-01
  1.874160290E+00  3.428407000E-02
  7.852681400E-01 -7.045400001E-04
  2.936902700E-01  4.669300001E-04
  1.174761000E-01 -2.197000000E-04
  4.699044000E-02  7.140000001E-05
   d  16
  8.592021510E+03  7.516999980E-05
  3.587699110E+03  2.124899994E-04
  1.543128350E+03  1.109469997E-03
  6.827511080E+02  4.556789988E-03
  3.108099220E+02  1.686669995E-02
  1.473366870E+02  4.393161988E-02
  7.202748890E+01  7.330272980E-02
  3.606887380E+01  2.616449993E-02
  1.791463700E+01 -1.326279296E-01
  8.785239350E+00 -2.385352094E-01
  4.254596090E+00  3.922149989E-03
  1.874160290E+00  4.494144088E-01
  7.852681400E-01  5.131073286E-01
  2.936902700E-01  1.944526995E-01
  1.174761000E-01  1.566539996E-03
  4.699044000E-02  4.777209987E-03
   d  16
  8.592021510E+03 -6.156999986E-05
  3.587699110E+03 -1.772199996E-04
  1.543128350E+03 -9.088899979E-04
  6.827511080E+02 -3.782369991E-03
  3.108099220E+02 -1.388141997E-02
  1.473366870E+02 -3.653594992E-02
  7.202748890E+01 -5.979091987E-02
  3.606887380E+01 -2.026419995E-02
  1.791463700E+01  1.206328397E-01
  8.785239350E+00  1.918606096E-01
  4.254596090E+00 -3.164307993E-02
  1.874160290E+00 -5.631901587E-01
  7.852681400E-01 -4.967207989E-02
  2.936902700E-01  6.411076486E-01
  1.174761000E-01  3.330359892E-01
  4.699044000E-02  1.008858298E-01
   d  16
  8.592021510E+03  8.155000024E-05
  3.587699110E+03  2.253400007E-04
  1.543128350E+03  1.205470004E-03
  6.827511080E+02  4.876200014E-03
  3.108099220E+02  1.833340005E-02
  1.473366870E+02  4.734596014E-02
  7.202748890E+01  7.871048023E-02
  3.606887380E+01  1.904425006E-02
  1.791463700E+01 -1.637246505E-01
  8.785239350E+00 -2.522751707E-01
  4.254596090E+00  1.292580004E-01
  1.874160290E+00  8.605238925E-01
  7.852681400E-01 -7.838333323E-01
  2.936902700E-01 -3.824080611E-01
  1.174761000E-01  6.705138520E-01
  4.699044000E-02  3.082088509E-01
   d  16
  8.592021510E+03 -9.775999995E-05
  3.587699110E+03 -1.908499999E-04
  1.543128350E+03 -1.453339999E-03
  6.827511080E+02 -4.686309997E-03
  3.108099220E+02 -2.115969999E-02
  1.473366870E+02 -4.645823997E-02
  7.202748890E+01 -9.423953995E-02
  3.606887380E+01  1.241113999E-02
  1.791463700E+01  1.345217299E-01
  8.785239350E+00  3.693439198E-01
  4.254596090E+00 -4.754345697E-01
  1.874160290E+00 -5.657116497E-01
  7.852681400E-01  1.326838949E+00
  2.936902700E-01 -9.950093095E-01
  1.174761000E-01 -1.617565499E-01
  4.699044000E-02  8.381954795E-01
   f  12
  5.633720440E+02  1.311259999E-03
  2.639091290E+02  4.936309996E-03
  1.277845750E+02  2.554366998E-02
  6.194032230E+01  8.393916993E-02
  3.120513120E+01  2.040808998E-01
  1.558105980E+01  3.416877997E-01
  7.652206910E+00  3.630135897E-01
  3.695529680E+00  2.299420798E-01
  1.634097750E+00  6.754502995E-02
  6.536391000E-01  2.736389998E-03
  2.614556400E-01  8.467799993E-04
  1.045822600E-01 -2.856899998E-04
   f  12
  5.633720440E+02 -4.379599970E-04
  2.639091290E+02 -1.701299988E-03
  1.277845750E+02 -8.600039941E-03
  6.194032230E+01 -2.865200980E-02
  3.120513120E+01 -7.029350951E-02
  1.558105980E+01 -1.228720992E-01
  7.652206910E+00 -1.191590592E-01
  3.695529680E+00  2.548929982E-02
  1.634097750E+00  5.281371663E-01
  6.536391000E-01  5.092782265E-01
  2.614556400E-01  8.068652944E-02
  1.045822600E-01  1.304025991E-02
   f  12
  5.633720440E+02  4.159600014E-04
  2.639091290E+02  1.027350003E-03
  1.277845750E+02  7.712060026E-03
  6.194032230E+01  1.968406007E-02
  3.120513120E+01  6.444361022E-02
  1.558105980E+01  9.950158033E-02
  7.652206910E+00  1.442543505E-01
  3.695529680E+00 -1.320125904E-01
  1.634097750E+00 -6.524510222E-01
  6.536391000E-01  3.325709511E-01
  2.614556400E-01  6.086018120E-01
  1.045822600E-01  1.683936906E-01
   f  12
  5.633720440E+02 -6.437000001E-04
  2.639091290E+02  1.259500000E-04
  1.277845750E+02 -1.052757000E-02
  6.194032230E+01 -9.149820002E-03
  3.120513120E+01 -8.808362002E-02
  1.558105980E+01 -7.172325002E-02
  7.652206910E+00 -2.737881501E-01
  3.695529680E+00  4.533056101E-01
  1.634097750E+00  4.874116501E-01
  6.536391000E-01 -1.068970460E+00
  2.614556400E-01  4.684164401E-01
  1.045822600E-01  5.359501301E-01
   g   4
  1.536795000E+00  7.337570182E-01
  6.147180000E-01  3.463723592E-01
  2.458870000E-01  7.732870981E-02
  9.835500000E-02 -3.095299993E-03
   g   4
  1.536795000E+00 -8.447958188E-01
  6.147180000E-01  8.147216589E-01
  2.458870000E-01  3.548982895E-01
  9.835500000E-02  4.881039993E-02
   g   4
  1.536795000E+00  6.124733982E-01
  6.147180000E-01 -1.244610616E+00
  2.458870000E-01  1.149490937E+00
  9.835500000E-02  7.540883977E-02
 
   2
   s  14
  1.053749500E+05  1.238600013E-04
  1.567924000E+04  5.120100053E-04
  3.534544700E+03  2.152910022E-03
  9.873651600E+02  8.528440089E-03
  3.159787500E+02  3.018049031E-02
  1.116542800E+02  9.099702095E-02
  4.269945100E+01  2.177936423E-01
  1.739559600E+01  3.686245738E-01
  7.438309000E+00  3.366707335E-01
  3.222862000E+00  9.657630101E-02
  1.253877000E+00  2.144520022E-03
  4.951550000E-01  1.194350012E-03
  1.916650000E-01  5.390200056E-04
  6.708300000E-02  2.103400022E-04
   s  14
  1.053749500E+05 -2.815000008E-05
  1.567924000E+04 -1.163000003E-04
  3.534544700E+03 -4.909200013E-04
  9.873651600E+02 -1.946160005E-03
  3.159787500E+02 -7.005300019E-03
  1.116542800E+02 -2.167814006E-02
  4.269945100E+01 -5.641213015E-02
  1.739559600E+01 -1.127053003E-01
  7.438309000E+00 -1.589119704E-01
  3.222862000E+00 -3.355083009E-02
  1.253877000E+00  3.531902810E-01
  4.951550000E-01  5.534199315E-01
  1.916650000E-01  2.301839106E-01
  6.708300000E-02  1.127267003E-02
   s  14
  1.053749500E+05  2.615999981E-05
  1.567924000E+04  1.074799992E-04
  3.534544700E+03  4.597199967E-04
  9.873651600E+02  1.795549987E-03
  3.159787500E+02  6.675739952E-03
  1.116542800E+02  2.053444985E-02
  4.269945100E+01  5.828601958E-02
  1.739559600E+01  1.212969091E-01
  7.438309000E+00  2.264147484E-01
  3.222862000E+00 -4.238699970E-02
  1.253877000E+00 -1.010455373E+00
  4.951550000E-01 -1.538686789E-01
  1.916650000E-01  9.934531929E-01
  6.708300000E-02  1.858725387E-01
   s  14
  1.053749500E+05 -5.058000006E-05
  1.567924000E+04 -2.002400002E-04
  3.534544700E+03 -9.195200011E-04
  9.873651600E+02 -3.202400004E-03
  3.159787500E+02 -1.359974002E-02
  1.116542800E+02 -3.392296004E-02
  4.269945100E+01 -1.168546201E-01
  1.739559600E+01 -1.404027502E-01
  7.438309000E+00 -4.754666606E-01
  3.222862000E+00  8.335009610E-01
  1.253877000E+00  1.301861382E+00
  4.951550000E-01 -2.481758443E+00
  1.916650000E-01  8.113465910E-01
  6.708300000E-02  5.821041707E-01
   s  14
  1.053749500E+05  5.195999997E-05
  1.567924000E+04  1.961199999E-04
  3.534544700E+03  9.930299994E-04
  9.873651600E+02  2.976579998E-03
  3.159787500E+02  1.564070999E-02
  1.116542800E+02  3.231922998E-02
  4.269945100E+01  1.601225299E-01
  1.739559600E+01  1.538686699E-01
  7.438309000E+00  9.388629994E-01
  3.222862000E+00 -3.164427218E+00
  1.253877000E+00  2.945453918E+00
  4.951550000E-01 -4.672425597E-01
  1.916650000E-01 -1.595038129E+00
  6.708300000E-02  1.344034819E+00
   p   9
  2.000000000E+02  9.173000030E-04
  4.653336700E+01  7.377140024E-03
  1.462180900E+01  3.483515011E-02
  5.313064000E+00  1.144397004E-01
  2.102525000E+00  2.554966408E-01
  8.502230000E-01  3.722557412E-01
  3.375970000E-01  3.323314911E-01
  1.288920000E-01  1.400847905E-01
  4.511200000E-02  2.395784008E-02
   p   9
  2.000000000E+02 -8.721300054E-04
  4.653336700E+01 -7.064240043E-03
  1.462180900E+01 -3.330489020E-02
  5.313064000E+00 -1.144127507E-01
  2.102525000E+00 -2.990106818E-01
  8.502230000E-01 -3.198605420E-01
  3.375970000E-01  2.055090013E-01
  1.288920000E-01  5.935926836E-01
  4.511200000E-02  2.822902717E-01
   p   9
  2.000000000E+02  1.296029993E-03
  4.653336700E+01  1.151278994E-02
  1.462180900E+01  5.159119973E-02
  5.313064000E+00  2.045940689E-01
  2.102525000E+00  5.501934472E-01
  8.502230000E-01 -1.487203792E-01
  3.375970000E-01 -8.969008454E-01
  1.288920000E-01  2.470759687E-01
  4.511200000E-02  6.444340467E-01
   p   9
  2.000000000E+02 -1.956020003E-03
  4.653336700E+01 -2.399585004E-02
  1.462180900E+01 -9.118427014E-02
  5.313064000E+00 -5.286338808E-01
  2.102525000E+00 -3.819831406E-01
  8.502230000E-01  1.441988162E+00
  3.375970000E-01 -6.736614610E-01
  1.288920000E-01 -6.649695010E-01
  4.511200000E-02  8.297710713E-01
   d   4
  3.750000000E+00  1.360975802E-01
  1.312500000E+00  5.140147507E-01
  4.593750000E-01  4.740712506E-01
  1.607810000E-01  8.166905011E-02
   d   4
  3.750000000E+00 -3.915195301E-01
  1.312500000E+00 -6.226272802E-01
  4.593750000E-01  7.216007303E-01
  1.607810000E-01  3.187010301E-01
   d   4
  3.750000000E+00  9.519974804E-01
  1.312500000E+00 -6.773662403E-01
  4.593750000E-01 -3.460856901E-01
  1.607810000E-01  8.152454703E-01
   f   3
  2.350000000E+00  3.346064164E-01
  9.400000000E-01  5.613667140E-01
  3.760000000E-01  2.957278568E-01
   f   3
  2.350000000E+00 -8.367770676E-01
  9.400000000E-01  1.072196997E-01
  3.760000000E-01  7.295506079E-01
   g   2
  1.175000000E+00  8.952490077E-01
  4.700000000E-01  1.666423496E-01
 
[MO]
Sym=     1a  
Ene= -3244.1000
Spin= Alpha
Occup=    2.00000
   1         0.99999988
   2        -0.00000031
   3        -0.00000283
   4        -0.00000717
   5        -0.00001296
   6         0.00001717
   7         0.00001567
   8        -0.00000359
   9        -0.00000064
  10         0.00000000
  11         0.00000000
  12        -0.00000022
  13         0.00000000
  14         0.00000000
  15        -0.00000031
  16         0.00000000
  17         0.00000000
  18        -0.00000217
  19         0.00000000
  20         0.00000000
  21        -0.00000084
  22         0.00000000
  23         0.00000000
  24         0.00003551
  25         0.00000000
  26         0.00000000
  27        -0.00000226
  28         0.00000000
  29         0.00000000
  30        -0.00000863
  31         0.00000000
  32         0.00000000
  33         0.00000489
  34        -0.00000001
  35         0.00000000
  36         0.00000000
  37        -0.00000002
  38         0.00000001
  39        -0.00000060
  40         0.00000000
  41         0.00000000
  42         0.00000001
  43        -0.00000000
  44         0.00000730
  45         0.00000000
  46         0.00000000
  47        -0.00000000
  48         0.00000000
  49         0.00002316
  50         0.00000000
  51         0.00000000
  52         0.00000000
  53        -0.00000000
  54         0.00000634
  55         0.00000000
  56         0.00000000
  57        -0.00000001
  58         0.00000000
  59        -0.00000434
  60         0.00000000
  61         0.00000000
  62         0.00000001
  63        -0.00000000
  64        -0.00000019
  65         0.00000000
  66         0.00000000
  67        -0.00000000
  68         0.00000000
  69         0.00000000
  70         0.00000000
  71         0.00000368
  72         0.00000000
  73         0.00000000
  74         0.00000000
  75        -0.00000000
  76         0.00000000
  77         0.00000000
  78         0.00000936
  79         0.00000000
  80         0.00000000
  81        -0.00000000
  82         0.00000000
  83         0.00000000
  84         0.00000000
  85         0.00000342
  86         0.00000000
  87         0.00000000
  88         0.00000000
  89        -0.00000000
  90         0.00000000
  91         0.00000000
  92         0.00000063
  93         0.00000000
  94         0.00000000
  95        -0.00000000
  96         0.00000000
  97         0.00000000
  98         0.00000000
  99        -0.00000000
 100         0.00000000
 101         0.00000233
 102         0.00000000
 103         0.00000000
 104        -0.00000000
 105         0.00000000
 106         0.00000000
 107         0.00000000
 108        -0.00000000
 109         0.00000000
 110         0.00000084
 111         0.00000000
 112         0.00000000
 113        -0.00000000
 114         0.00000000
 115         0.00000000
 116         0.00000000
 117        -0.00000000
 118         0.00000000
 119        -0.00000907
 120        -0.00003830
 121        -0.00001263
 122        -0.00000266
 123         0.00000016
 124         0.00000000
 125         0.00000000
 126        -0.00001983
 127         0.00000000
 128         0.00000000
 129        -0.00001515
 130         0.00000000
 131         0.00000000
 132         0.00000442
 133         0.00000000
 134         0.00000000
 135         0.00000039
 136         0.00001910
 137         0.00000000
 138         0.00000000
 139         0.00000000
 140        -0.00000000
 141         0.00001061
 142         0.00000000
 143         0.00000000
 144         0.00000000
 145        -0.00000000
 146         0.00000079
 147         0.00000000
 148         0.00000000
 149         0.00000000
 150        -0.00000000
 151        -0.00000826
 152         0.00000000
 153         0.00000000
 154         0.00000000
 155        -0.00000000
 156         0.00000000
 157         0.00000000
 158        -0.00000375
 159         0.00000000
 160         0.00000000
 161        -0.00000000
 162         0.00000000
 163         0.00000000
 164         0.00000000
 165         0.00000167
 166         0.00000000
 167         0.00000000
 168        -0.00000000
 169         0.00000000
 170         0.00000000
 171         0.00000000
 172         0.00000000
 173        -0.00000000
Sym=     2a  
Ene=  -586.7100
Spin= Alpha
Occup=    2.00000
   1        -0.00000073
   2         0.99999824
   3        -0.00000295
   4        -0.00001806
   5        -0.00003270
   6         0.00001614
   7         0.00002984
   8        -0.00000716
   9        -0.00000070
  10         0.00000000
  11         0.00000000
  12        -0.00000128
  13         0.00000000
  14         0.00000000
  15        -0.00000120
  16         0.00000000
  17         0.00000000
  18        -0.00000489
  19         0.00000000
  20         0.00000000
  21        -0.00000724
  22         0.00000000
  23         0.00000000
  24         0.00005747
  25         0.00000000
  26         0.00000000
  27        -0.00000124
  28         0.00000000
  29         0.00000000
  30        -0.00001621
  31         0.00000000
  32         0.00000000
  33         0.00000875
  34         0.00000272
  35         0.00000000
  36         0.00000000
  37        -0.00000159
  38         0.00000066
  39        -0.00000193
  40         0.00000000
  41         0.00000000
  42         0.00000042
  43        -0.00000017
  44         0.00001125
  45         0.00000000
  46         0.00000000