[Molden Format]
[N_Atoms]
 11
[Atoms] (AU)
C1          1      6           0.00000000      0.00000000      0.00000000
C2          2      6           0.00000000      2.22264400      1.77431400
C2          3      6           0.00000000     -2.22264400      1.77431400
C3          4      6           0.00000000      1.38446000      4.16779300
C3          5      6           0.00000000     -1.38446000      4.16779300
H1          6      1           1.66203300      0.00000000     -1.24562300
H1          7      1          -1.66203300      0.00000000     -1.24562300
H2          8      1           0.00000000      4.16784400      1.14977800
H2          9      1           0.00000000     -4.16784400      1.14977800
H3         10      1           0.00000000      2.54863700      5.84907800
H3         11      1           0.00000000     -2.54863700      5.84907800
[Charge] (Mulliken)
 -0.119537205614273
 -0.121989063278175
 -0.121989063278175
 -0.144151562099687
 -0.144151562099687
 0.145673085934598
 0.145673085934598
 0.119851423801493
 0.119851423801493
 0.120153321255899
 0.120153321255899
[GTO] (AU)
   1
   s   3
  7.161683735E+01  1.543289673E-01
  1.304509632E+01  5.353281423E-01
  3.530512160E+00  4.446345422E-01
   s   3
  2.941249355E+00 -9.996722919E-02
  6.834830964E-01  3.995128261E-01
  2.222899159E-01  7.001154689E-01
   p   3
  2.941249355E+00  1.559162750E-01
  6.834830964E-01  6.076837186E-01
  2.222899159E-01  3.919573931E-01
 
   2
   s   3
  7.161683735E+01  1.543289673E-01
  1.304509632E+01  5.353281423E-01
  3.530512160E+00  4.446345422E-01
   s   3
  2.941249355E+00 -9.996722919E-02
  6.834830964E-01  3.995128261E-01
  2.222899159E-01  7.001154689E-01
   p   3
  2.941249355E+00  1.559162750E-01
  6.834830964E-01  6.076837186E-01
  2.222899159E-01  3.919573931E-01
 
   3
   s   3
  7.161683735E+01  1.543289673E-01
  1.304509632E+01  5.353281423E-01
  3.530512160E+00  4.446345422E-01
   s   3
  2.941249355E+00 -9.996722919E-02
  6.834830964E-01  3.995128261E-01
  2.222899159E-01  7.001154689E-01
   p   3
  2.941249355E+00  1.559162750E-01
  6.834830964E-01  6.076837186E-01
  2.222899159E-01  3.919573931E-01
 
   4
   s   3
  7.161683735E+01  1.543289673E-01
  1.304509632E+01  5.353281423E-01
  3.530512160E+00  4.446345422E-01
   s   3
  2.941249355E+00 -9.996722919E-02
  6.834830964E-01  3.995128261E-01
  2.222899159E-01  7.001154689E-01
   p   3
  2.941249355E+00  1.559162750E-01
  6.834830964E-01  6.076837186E-01
  2.222899159E-01  3.919573931E-01
 
   5
   s   3
  7.161683735E+01  1.543289673E-01
  1.304509632E+01  5.353281423E-01
  3.530512160E+00  4.446345422E-01
   s   3
  2.941249355E+00 -9.996722919E-02
  6.834830964E-01  3.995128261E-01
  2.222899159E-01  7.001154689E-01
   p   3
  2.941249355E+00  1.559162750E-01
  6.834830964E-01  6.076837186E-01
  2.222899159E-01  3.919573931E-01
 
   6
   s   3
  3.425250914E+00  1.543289673E-01
  6.239137298E-01  5.353281423E-01
  1.688554040E-01  4.446345422E-01
 
   7
   s   3
  3.425250914E+00  1.543289673E-01
  6.239137298E-01  5.353281423E-01
  1.688554040E-01  4.446345422E-01
 
   8
   s   3
  3.425250914E+00  1.543289673E-01
  6.239137298E-01  5.353281423E-01
  1.688554040E-01  4.446345422E-01
 
   9
   s   3
  3.425250914E+00  1.543289673E-01
  6.239137298E-01  5.353281423E-01
  1.688554040E-01  4.446345422E-01
 
  10
   s   3
  3.425250914E+00  1.543289673E-01
  6.239137298E-01  5.353281423E-01
  1.688554040E-01  4.446345422E-01
 
  11
   s   3
  3.425250914E+00  1.543289673E-01
  6.239137298E-01  5.353281423E-01
  1.688554040E-01  4.446345422E-01
 
[MO]
Sym=     1a1 
Ene=   -11.0480
Spin= Alpha
Occup=    2.00000
   1         0.99187994
   2         0.03789249
   3         0.00000000
   4         0.00000000
   5         0.00037705
   6        -0.00241233
   7        -0.00613011
   8         0.00000000
   9         0.00337720
  10         0.00276280
  11        -0.00241233
  12        -0.00613011
  13         0.00000000
  14        -0.00337720
  15         0.00276280
  16        -0.00132572
  17         0.00016076
  18         0.00000000
  19         0.00006217
  20        -0.00001568
  21        -0.00132572
  22         0.00016076
  23         0.00000000
  24        -0.00006217
  25        -0.00001568
  26        -0.00693682
  27        -0.00693682
  28         0.00011056
  29         0.00011056
  30        -0.00006706
  31        -0.00006706
Sym=     2a1 
Ene=   -11.0140
Spin= Alpha
Occup=    2.00000
   1         0.00246936
   2        -0.00058602
   3         0.00000000
   4         0.00000000
   5        -0.00065036
   6         0.07101131
   7        -0.00278235
   8         0.00000000
   9         0.00099331
  10        -0.00296876
  11         0.07101131
  12        -0.00278235
  13         0.00000000
  14        -0.00099331
  15        -0.00296876
  16         0.69835464
  17         0.02051752
  18         0.00000000
  19         0.00271213
  20        -0.00111662
  21         0.69835464
  22         0.02051752
  23         0.00000000
  24        -0.00271213
  25        -0.00111662
  26        -0.00009779
  27        -0.00009779
  28        -0.00044064
  29        -0.00044064
  30        -0.00463551
  31        -0.00463551
Sym=     3a1 
Ene=   -11.0110
Spin= Alpha
Occup=    2.00000
   1         0.00453520
   2        -0.00807507
   3         0.00000000
   4         0.00000000
   5        -0.00378708
   6         0.69803223
   7         0.02593065
   8         0.00000000
   9        -0.00091226
  10         0.00130321
  11         0.69803223
  12         0.02593065
  13         0.00000000
  14         0.00091226
  15         0.00130321
  16        -0.07056016
  17        -0.00751279
  18         0.00000000
  19        -0.00142456
  20         0.00334265
  21        -0.07056016
  22        -0.00751279
  23         0.00000000
  24         0.00142456
  25         0.00334265
  26        -0.00014302
  27        -0.00014302
  28        -0.00478572
  29        -0.00478572
  30         0.00049252
  31         0.00049252
Sym=     4a1 
Ene=    -1.0928
Spin= Alpha
Occup=    2.00000
   1        -0.11095126
   2         0.28934938
   3         0.00000000
   4         0.00000000
   5         0.06540752
   6        -0.11211685
   7         0.27682277
   8         0.00000000
   9        -0.07358442
  10         0.03546798
  11        -0.11211685
  12         0.27682277
  13         0.00000000
  14         0.07358442
  15         0.03546798
  16        -0.11392468
  17         0.28202173
  18         0.00000000
  19        -0.03939564
  20        -0.07395194
  21        -0.11392468
  22         0.28202173
  23         0.00000000
  24         0.03939564
  25        -0.07395194
  26         0.05317226
  27         0.05317226
  28         0.04876026
  29         0.04876026
  30         0.04868783
  31         0.04868783
Sym=     5a1 
Ene=    -0.9021
Spin= Alpha
Occup=    2.00000
   1         0.16969900
   2        -0.49317531
   3         0.00000000
   4         0.00000000
   5         0.03084969
   6         0.02089361
   7        -0.06002131
   8         0.00000000
   9         0.03535796
  10         0.14569061
  11         0.02089361
  12        -0.06002131
  13         0.00000000
  14        -0.03535796
  15         0.14569061
  16        -0.11523204
  17         0.32104536
  18         0.00000000
  19        -0.05551859
  20         0.02166220
  21        -0.11523204
  22         0.32104536
  23         0.00000000
  24         0.05551859
  25         0.02166220
  26        -0.15287947
  27        -0.15287947
  28        -0.02465871
  29        -0.02465871
  30         0.09984212
  31         0.09984212
Sym=     6a1 
Ene=    -0.7041
Spin= Alpha
Occup=    2.00000
   1        -0.08380784
   2         0.26446706
   3         0.00000000
   4         0.00000000
   5        -0.16722924
   6         0.10189119
   7        -0.31090985
   8         0.00000000
   9        -0.11947371
  10        -0.03976843
  11         0.10189119
  12        -0.31090985
  13         0.00000000
  14         0.11947371
  15        -0.03976843
  16        -0.05359519
  17         0.17218393
  18         0.00000000
  19        -0.13759011
  20         0.19266463
  21        -0.05359519
  22         0.17218393
  23         0.00000000
  24         0.13759011
  25         0.19266463
  26         0.16238772
  27         0.16238772
  28        -0.19774447
  29        -0.19774447
  30         0.12246055
  31         0.12246055
Sym=     7a1 
Ene=    -0.6491
Spin= Alpha
Occup=    2.00000
   1        -0.00377813
   2         0.01794255
   3         0.00000000
   4         0.00000000
   5        -0.21132791
   6        -0.01708143
   7         0.06540178
   8         0.00000000
   9         0.25943800
  10        -0.06121307
  11        -0.01708143
  12         0.06540178
  13         0.00000000
  14        -0.25943800
  15        -0.06121307
  16        -0.01343519
  17         0.05734438
  18         0.00000000
  19         0.16883071
  20         0.20921586
  21        -0.01343519
  22         0.05734438
  23         0.00000000
  24        -0.16883071
  25         0.20921586
  26         0.09916843
  27         0.09916843
  28         0.21119739
  29         0.21119739
  30         0.20747394
  31         0.20747394
Sym=     8a1 
Ene=    -0.4695
Spin= Alpha
Occup=    2.00000
   1         0.00305878
   2        -0.01735907
   3         0.00000000
   4         0.00000000
   5        -0.33985113
   6         0.01082907
   7        -0.05750294
   8         0.00000000
   9        -0.01678667
  10         0.33909897
  11         0.01082907
  12        -0.05750294
  13         0.00000000
  14         0.01678667
  15         0.33909897
  16        -0.01219479
  17         0.02852380
  18         0.00000000
  19         0.29261608
  20        -0.23195507
  21        -0.01219479
  22         0.02852380
  23         0.00000000
  24        -0.29261608
  25        -0.23195507
  26         0.19422922
  27         0.19422922
  28        -0.15714734
  29        -0.15714734
  30        -0.00741125
  31        -0.00741125
Sym=     9a1 
Ene=    -0.4528
Spin= Alpha
Occup=    2.00000
   1        -0.03776866
   2         0.14603489
   3         0.00000000
   4         0.00000000
   5         0.36660014
   6        -0.01269625
   7         0.05365073
   8         0.00000000
   9        -0.20907988
  10        -0.04377392
  11        -0.01269625
  12         0.05365073
  13         0.00000000
  14         0.20907988
  15        -0.04377392
  16         0.02999038
  17        -0.11565693
  18         0.00000000
  19         0.36715169
  20         0.12368827
  21         0.02999038
  22        -0.11565693
  23         0.00000000
  24        -0.36715169
  25         0.12368827
  26        -0.15259956
  27        -0.15259956
  28        -0.16775680
  29        -0.16775680
  30         0.26149239
  31         0.26149239
Sym=    10a1 
Ene=     0.6146
Spin= Alpha
Occup=    0.00000
   1         0.02194461
   2        -0.16182499
   3         0.00000000
   4         0.00000000
   5         0.40280490
   6         0.09034756
   7        -0.56905596
   8         0.00000000
   9        -0.26633245
  10         0.21635964
  11         0.09034756
  12        -0.56905596
  13         0.00000000
  14         0.26633245
  15         0.21635964
  16         0.04714194
  17        -0.31831179
  18         0.00000000
  19        -0.17056841
  20        -0.28545198
  21         0.04714194
  22        -0.31831179
  23         0.00000000
  24         0.17056841
  25        -0.28545198
  26         0.31567018
  27         0.31567018
  28         0.63994510
  29         0.63994510
  30         0.50013197
  31         0.50013197
Sym=    11a1 
Ene=     0.6608
Spin= Alpha
Occup=    0.00000
   1        -0.09653878
   2         0.55380731
   3         0.00000000
   4         0.00000000
   5         0.70328244
   6         0.06869227
   7        -0.39102495
   8         0.00000000
   9         0.16865633
  10         0.42555750
  11         0.06869227
  12        -0.39102495
  13         0.00000000
  14        -0.16865633
  15         0.42555750
  16        -0.04276215
  17         0.26724890
  18         0.00000000
  19         0.17704362
  20         0.41423712
  21        -0.04276215
  22         0.26724890
  23         0.00000000
  24        -0.17704362
  25         0.41423712
  26         0.13445877
  27         0.13445877
  28         0.20272492
  29         0.20272492
  30        -0.58037116
  31        -0.58037116
Sym=    12a1 
Ene=     0.7319
Spin= Alpha
Occup=    0.00000
   1         0.19590843
   2        -1.22555611
   3         0.00000000
   4         0.00000000
   5         0.51538125
   6        -0.08803970
   7         0.56198767
   8         0.00000000
   9         0.04858626
  10        -0.01930705
  11        -0.08803970
  12         0.56198767
  13         0.00000000
  14        -0.04858626
  15        -0.01930705
  16         0.03169579
  17        -0.19972924
  18         0.00000000
  19        -0.09050929
  20         0.19697045
  21         0.03169579
  22        -0.19972924
  23         0.00000000
  24         0.09050929
  25         0.19697045
  26         0.78840908
  27         0.78840908
  28        -0.33920961
  29        -0.33920961
  30         0.00152739
  31         0.00152739
Sym=    13a1 
Ene=     0.8430
Spin= Alpha
Occup=    0.00000
   1         0.11190125
   2        -0.72445483
   3         0.00000000
   4         0.00000000
   5        -0.08546952
   6         0.05686367
   7        -0.40848158
   8         0.00000000
   9        -0.38694603
  10        -0.59421958
  11         0.05686367
  12        -0.40848158
  13         0.00000000
  14         0.38694603
  15        -0.59421958
  16        -0.10037549
  17         0.69887162
  18         0.00000000
  19         0.45063345
  20        -0.13569339
  21        -0.10037549
  22         0.69887162
  23         0.00000000
  24        -0.45063345
  25        -0.13569339
  26         0.22517837
  27         0.22517837
  28         0.32142901
  29         0.32142901
  30        -0.40688720
  31        -0.40688720
Sym=    14a1 
Ene=     1.0152
Spin= Alpha
Occup=    0.00000
   1         0.06101814
   2        -0.40862679
   3         0.00000000
   4         0.00000000
   5        -0.62906347
   6        -0.07676238
   7         0.55750847
   8         0.00000000
   9        -0.73633107
  10         0.40859470
  11        -0.07676238
  12         0.55750847
  13         0.00000000
  14         0.73633107
  15         0.40859470
  16         0.05023074
  17        -0.39100514
  18         0.00000000
  19        -0.04477280
  20         0.61000862
  21         0.05023074
  22        -0.39100514
  23         0.00000000
  24         0.04477280
  25         0.61000862
  26        -0.11298782
  27        -0.11298782
  28         0.37369385
  29         0.37369385
  30        -0.19772184
  31        -0.19772184
Sym=     1a2 
Ene=    -0.2492
Spin= Alpha
Occup=    2.00000
   1         0.00000000
   2         0.00000000
   3         0.00000000
   4         0.00000000
   5         0.00000000
   6         0.00000000
   7         0.00000000
   8         0.54088988
   9         0.00000000
  10         0.00000000
  11         0.00000000
  12         0.00000000
  13        -0.54088988
  14         0.00000000
  15         0.00000000
  16         0.00000000
  17         0.00000000
  18         0.39879809
  19         0.00000000
  20         0.00000000
  21         0.00000000
  22         0.00000000
  23        -0.39879809
  24         0.00000000
  25         0.00000000
  26         0.00000000
  27         0.00000000
  28         0.00000000
  29         0.00000000
  30         0.00000000
  31         0.00000000
Sym=     2a2 
Ene=     0.4131
Spin= Alpha
Occup=    0.00000
   1         0.00000000
   2         0.00000000
   3         0.00000000
   4         0.00000000
   5         0.00000000
   6         0.00000000
   7         0.00000000
   8        -0.50100819
   9         0.00000000
  10         0.00000000
  11         0.00000000
  12         0.00000000
  13         0.50100819
  14         0.00000000
  15         0.00000000
  16         0.00000000
  17         0.00000000
  18         0.70089211
  19         0.00000000
  20         0.00000000
  21         0.00000000
  22         0.00000000
  23        -0.70089211
  24         0.00000000
  25         0.00000000
  26         0.00000000
  27         0.00000000
  28         0.00000000
  29         0.00000000
  30         0.00000000
  31         0.00000000
Sym=     1b2 
Ene=   -11.0140
Spin= Alpha
Occup=    2.00000
   1         0.00000000
   2         0.00000000
   3         0.00000000
   4        -0.00045962
   5         0.00000000
   6         0.09151542
   7        -0.00233301
   8         0.00000000
   9         0.00077203
  10        -0.00297747
  11        -0.09151542
  12         0.00233301
  13         0.00000000
  14         0.00077203
  15         0.00297747
  16         0.69530418
  17         0.02924776
  18         0.00000000
  19        -0.00348728
  20        -0.00109724
  21        -0.69530418
  22        -0.02924776
  23         0.00000000
  24        -0.00348728
  25         0.00109724
  26         0.00000000
  27         0.00000000
  28        -0.00042239
  29         0.00042239
  30        -0.00469197
  31         0.00469197
Sym=     2b2 
Ene=   -11.0110
Spin= Alpha
Occup=    2.00000
   1         0.00000000
   2         0.00000000
   3         0.00000000
   4        -0.00470634
   5         0.00000000
   6         0.69557779
   7         0.02584957
   8         0.00000000
   9        -0.00112873
  10         0.00155955
  11        -0.69557779
  12        -0.02584957
  13         0.00000000
  14        -0.00112873
  15        -0.00155955
  16        -0.09113150
  17        -0.00947399
  18         0.00000000
  19        -0.00078923
  20         0.00301544
  21         0.09113150
  22         0.00947399
  23         0.00000000
  24        -0.00078923
  25        -0.00301544
  26         0.00000000
  27         0.00000000
  28        -0.00463212
  29         0.00463212
  30         0.00082388
  31        -0.00082388
Sym=     3b2 
Ene=    -0.9074
Spin= Alpha
Occup=    2.00000
   1         0.00000000
   2         0.00000000
   3         0.00000000
   4         0.12614573
   5         0.00000000
   6        -0.14548175
   7         0.40318254
   8         0.00000000
   9         0.00149557
  10         0.07203022
  11         0.14548175
  12        -0.40318254
  13         0.00000000
  14         0.00149557
  15        -0.07203022
  16        -0.10201539
  17         0.28002198
  18         0.00000000
  19         0.10459155
  20        -0.09156589
  21         0.10201539
  22        -0.28002198
  23         0.00000000
  24         0.10459155
  25         0.09156589
  26         0.00000000
  27         0.00000000
  28         0.12430487
  29        -0.12430487
  30         0.08564437
  31        -0.08564437
Sym=     4b2 
Ene=    -0.6759
Spin= Alpha
Occup=    2.00000
   1         0.00000000
   2         0.00000000
   3         0.00000000
   4        -0.22194498
   5         0.00000000
   6         0.06982421
   7        -0.22534404
   8         0.00000000
   9        -0.06004750
  10         0.20861703
  11        -0.06982421
  12         0.22534404
  13         0.00000000
  14        -0.06004750
  15        -0.20861703
  16        -0.10006173
  17         0.30754535
  18         0.00000000
  19         0.13189947
  20         0.09013447
  21         0.10006173
  22        -0.30754535
  23         0.00000000
  24         0.13189947
  25        -0.09013447
  26         0.00000000
  27         0.00000000
  28        -0.17928613
  29         0.17928613
  30         0.23507389
  31        -0.23507389
Sym=     5b2 
Ene=    -0.5045
Spin= Alpha
Occup=    2.00000
   1         0.00000000
   2         0.00000000
   3         0.00000000
   4        -0.05030833
   5         0.00000000
   6         0.03259197
   7        -0.10224055
   8         0.00000000
   9         0.27635244
  10        -0.22051632
  11        -0.03259197
  12         0.10224055
  13         0.00000000
  14         0.27635244
  15         0.22051632
  16         0.01420916
  17        -0.03696656
  18         0.00000000
  19         0.03878683
  20         0.33156758
  21        -0.01420916
  22         0.03696656
  23         0.00000000
  24         0.03878683
  25        -0.33156758
  26         0.00000000
  27         0.00000000
  28         0.25154432
  29        -0.25154432
  30         0.25303387
  31        -0.25303387
Sym=     6b2 
Ene=    -0.4469
Spin= Alpha
Occup=    2.00000
   1         0.00000000
   2         0.00000000
   3         0.00000000
   4        -0.50005790
   5         0.00000000
   6         0.00582082
   7        -0.03588373
   8         0.00000000
   9         0.30362519
  10         0.25257355
  11        -0.00582082
  12         0.03588373
  13         0.00000000
  14         0.30362519
  15        -0.25257355
  16         0.01344693
  17        -0.05406067
  18         0.00000000
  19         0.00594750
  20        -0.16134836
  21        -0.01344693
  22         0.05406067
  23         0.00000000
  24         0.00594750
  25         0.16134836
  26         0.00000000
  27         0.00000000
  28         0.21164042
  29        -0.21164042
  30        -0.17413400
  31         0.17413400
Sym=     7b2 
Ene=     0.6201
Spin= Alpha
Occup=    0.00000
   1         0.00000000
   2         0.00000000
   3         0.00000000
   4         0.81720943
   5         0.00000000
   6         0.05095479
   7        -0.29300035
   8         0.00000000
   9         0.50591582
  10         0.21043388
  11        -0.05095479
  12         0.29300035
  13         0.00000000
  14         0.50591582
  15        -0.21043388
  16         0.03938905
  17        -0.22423557
  18         0.00000000
  19         0.54796022
  20        -0.03503166
  21        -0.03938905
  22         0.22423557
  23         0.00000000
  24         0.54796022
  25         0.03503166
  26         0.00000000
  27         0.00000000
  28        -0.27329878
  29         0.27329878
  30        -0.16856592
  31         0.16856592
Sym=     8b2 
Ene=     0.6933
Spin= Alpha
Occup=    0.00000
   1         0.00000000
   2         0.00000000
   3         0.00000000
   4         0.39766099
   5         0.00000000
   6         0.11081171
   7        -0.68505504
   8         0.00000000
   9        -0.08318651
  10         0.02350090
  11        -0.11081171
  12         0.68505504
  13         0.00000000
  14        -0.08318651
  15        -0.02350090
  16        -0.15957039
  17         0.98470461
  18         0.00000000
  19        -0.16814856
  20         0.15635839
  21         0.15957039
  22        -0.98470461
  23         0.00000000
  24        -0.16814856
  25        -0.15635839
  26         0.00000000
  27         0.00000000
  28         0.44671973
  29        -0.44671973
  30        -0.55919268
  31         0.55919268
Sym=     9b2 
Ene=     0.7499
Spin= Alpha
Occup=    0.00000
   1         0.00000000
   2         0.00000000
   3         0.00000000
   4         0.39533262
   5         0.00000000
   6         0.08391420
   7        -0.56544578
   8         0.00000000
   9        -0.34409554
  10         0.32300953
  11        -0.08391420
  12         0.56544578
  13         0.00000000
  14        -0.34409554
  15        -0.32300953
  16         0.07564021
  17        -0.50733409
  18         0.00000000
  19        -0.01281855
  20        -0.38810807
  21        -0.07564021
  22         0.50733409
  23         0.00000000
  24        -0.01281855
  25         0.38810807
  26         0.00000000
  27         0.00000000
  28         0.63698274
  29        -0.63698274
  30         0.52798358
  31        -0.52798358
Sym=    10b2 
Ene=     0.9471
Spin= Alpha
Occup=    0.00000
   1         0.00000000
   2         0.00000000
   3         0.00000000
   4         0.46958063
   5         0.00000000
   6        -0.03339281
   7         0.26162088
   8         0.00000000
   9         0.36830091
  10         0.52622905
  11         0.03339281
  12        -0.26162088
  13         0.00000000
  14         0.36830091
  15        -0.52622905
  16        -0.00160324
  17        -0.01791705
  18         0.00000000
  19        -0.88153811
  20         0.19690259
  21         0.00160324
  22         0.01791705
  23         0.00000000
  24        -0.88153811
  25        -0.19690259
  26         0.00000000
  27         0.00000000
  28        -0.24036951
  29         0.24036951
  30         0.25817079
  31        -0.25817079
Sym=    11b2 
Ene=     1.1355
Spin= Alpha
Occup=    0.00000
   1         0.00000000
   2         0.00000000
   3         0.00000000
   4        -0.01860102
   5         0.00000000
   6        -0.06187315
   7         0.49902874
   8         0.00000000
   9        -0.46957926
  10         0.60162830
  11         0.06187315
  12        -0.49902874
  13         0.00000000
  14        -0.46957926
  15        -0.60162830
  16         0.08351197
  17        -0.64744430
  18         0.00000000
  19         0.26375868
  20         0.88629625
  21        -0.08351197
  22         0.64744430
  23         0.00000000
  24         0.26375868
  25        -0.88629625
  26         0.00000000
  27         0.00000000
  28         0.24564288
  29        -0.24564288
  30        -0.35411130
  31         0.35411130
Sym=     1b1 
Ene=    -0.5566
Spin= Alpha
Occup=    2.00000
   1         0.00000000
   2         0.00000000
   3         0.52355377
   4         0.00000000
   5         0.00000000
   6         0.00000000
   7         0.00000000
   8         0.18117475
   9         0.00000000
  10         0.00000000
  11         0.00000000
  12         0.00000000
  13         0.18117475
  14         0.00000000
  15         0.00000000
  16         0.00000000
  17         0.00000000
  18         0.12927263
  19         0.00000000
  20         0.00000000
  21         0.00000000
  22         0.00000000
  23         0.12927263
  24         0.00000000
  25         0.00000000
  26         0.35793324
  27        -0.35793324
  28         0.00000000
  29         0.00000000
  30         0.00000000
  31         0.00000000
Sym=     2b1 
Ene=    -0.3625
Spin= Alpha
Occup=    2.00000
   1         0.00000000
   2         0.00000000
   3        -0.21492046
   4         0.00000000
   5         0.00000000
   6         0.00000000
   7         0.00000000
   8         0.30052996
   9         0.00000000
  10         0.00000000
  11         0.00000000
  12         0.00000000
  13         0.30052996
  14         0.00000000
  15         0.00000000
  16         0.00000000
  17         0.00000000
  18         0.47647455
  19         0.00000000
  20         0.00000000
  21         0.00000000
  22         0.00000000
  23         0.47647455
  24         0.00000000
  25         0.00000000
  26        -0.23370658
  27         0.23370658
  28         0.00000000
  29         0.00000000
  30         0.00000000
  31         0.00000000
Sym=     3b1 
Ene=     0.2554
Spin= Alpha
Occup=    0.00000
   1         0.00000000
   2         0.00000000
   3        -0.06001164
   4         0.00000000
   5         0.00000000
   6         0.00000000
   7         0.00000000
   8        -0.60586056
   9         0.00000000
  10         0.00000000
  11         0.00000000
  12         0.00000000
  13        -0.60586056
  14         0.00000000
  15         0.00000000
  16         0.00000000
  17         0.00000000
  18         0.44659007
  19         0.00000000
  20         0.00000000
  21         0.00000000
  22         0.00000000
  23         0.44659007
  24         0.00000000
  25         0.00000000
  26         0.26951484
  27        -0.26951484
  28         0.00000000
  29         0.00000000
  30         0.00000000
  31         0.00000000
Sym=     4b1 
Ene=     0.7288
Spin= Alpha
Occup=    0.00000
   1         0.00000000
   2         0.00000000
   3        -1.12186953
   4         0.00000000
   5         0.00000000
   6         0.00000000
   7         0.00000000
   8         0.24351896
   9         0.00000000
  10         0.00000000
  11         0.00000000
  12         0.00000000
  13         0.24351896
  14         0.00000000
  15         0.00000000
  16         0.00000000
  17         0.00000000
  18        -0.06554437
  19         0.00000000
  20         0.00000000
  21         0.00000000
  22         0.00000000
  23        -0.06554437
  24         0.00000000
  25         0.00000000
  26         0.81027281
  27        -0.81027281
  28         0.00000000
  29         0.00000000
  30         0.00000000
  31         0.00000000
