[Molden Format]
[N_Atoms]
 11
[Atoms] (AU)
C1          1      6           0.00000000      0.00000000     -0.03878218
C2          2      6           0.00000000      2.23950522      1.77582896
C2          3      6           0.00000000     -2.23950522      1.77582896
C3          4      6           0.00000000      1.40852642      4.19141495
C3          5      6           0.00000000     -1.40852642      4.19141495
H1          6      1           1.66218832      0.00000000     -1.25736845
H1          7      1          -1.66218832      0.00000000     -1.25736845
H2          8      1           0.00000000      4.18059712      1.14250064
H2          9      1           0.00000000     -4.18059712      1.14250064
H3         10      1           0.00000000      2.55484583      5.88174608
H3         11      1           0.00000000     -2.55484583      5.88174608
[Charge] (Mulliken)
 -0.118434172560651
 -0.118606127733969
 -0.118606127733969
 -0.137638320702129
 -0.137638320702129
 0.136040236515670
 0.136040236515670
 0.117661187855689
 0.117661187855689
 0.120977196625317
 0.120977196625317
[GTO] (AU)
   1
   s   3
  7.161683735E+01  1.543289673E-01
  1.304509632E+01  5.353281423E-01
  3.530512160E+00  4.446345422E-01
   s   3
  2.941249355E+00 -9.996722919E-02
  6.834830964E-01  3.995128261E-01
  2.222899159E-01  7.001154689E-01
   p   3
  2.941249355E+00  1.559162750E-01
  6.834830964E-01  6.076837186E-01
  2.222899159E-01  3.919573931E-01
 
   2
   s   3
  7.161683735E+01  1.543289673E-01
  1.304509632E+01  5.353281423E-01
  3.530512160E+00  4.446345422E-01
   s   3
  2.941249355E+00 -9.996722919E-02
  6.834830964E-01  3.995128261E-01
  2.222899159E-01  7.001154689E-01
   p   3
  2.941249355E+00  1.559162750E-01
  6.834830964E-01  6.076837186E-01
  2.222899159E-01  3.919573931E-01
 
   3
   s   3
  7.161683735E+01  1.543289673E-01
  1.304509632E+01  5.353281423E-01
  3.530512160E+00  4.446345422E-01
   s   3
  2.941249355E+00 -9.996722919E-02
  6.834830964E-01  3.995128261E-01
  2.222899159E-01  7.001154689E-01
   p   3
  2.941249355E+00  1.559162750E-01
  6.834830964E-01  6.076837186E-01
  2.222899159E-01  3.919573931E-01
 
   4
   s   3
  7.161683735E+01  1.543289673E-01
  1.304509632E+01  5.353281423E-01
  3.530512160E+00  4.446345422E-01
   s   3
  2.941249355E+00 -9.996722919E-02
  6.834830964E-01  3.995128261E-01
  2.222899159E-01  7.001154689E-01
   p   3
  2.941249355E+00  1.559162750E-01
  6.834830964E-01  6.076837186E-01
  2.222899159E-01  3.919573931E-01
 
   5
   s   3
  7.161683735E+01  1.543289673E-01
  1.304509632E+01  5.353281423E-01
  3.530512160E+00  4.446345422E-01
   s   3
  2.941249355E+00 -9.996722919E-02
  6.834830964E-01  3.995128261E-01
  2.222899159E-01  7.001154689E-01
   p   3
  2.941249355E+00  1.559162750E-01
  6.834830964E-01  6.076837186E-01
  2.222899159E-01  3.919573931E-01
 
   6
   s   3
  3.425250914E+00  1.543289673E-01
  6.239137298E-01  5.353281423E-01
  1.688554040E-01  4.446345422E-01
 
   7
   s   3
  3.425250914E+00  1.543289673E-01
  6.239137298E-01  5.353281423E-01
  1.688554040E-01  4.446345422E-01
 
   8
   s   3
  3.425250914E+00  1.543289673E-01
  6.239137298E-01  5.353281423E-01
  1.688554040E-01  4.446345422E-01
 
   9
   s   3
  3.425250914E+00  1.543289673E-01
  6.239137298E-01  5.353281423E-01
  1.688554040E-01  4.446345422E-01
 
  10
   s   3
  3.425250914E+00  1.543289673E-01
  6.239137298E-01  5.353281423E-01
  1.688554040E-01  4.446345422E-01
 
  11
   s   3
  3.425250914E+00  1.543289673E-01
  6.239137298E-01  5.353281423E-01
  1.688554040E-01  4.446345422E-01
 
[MO]
Sym=     1a1 
Ene=   -11.0470
Spin= Alpha
Occup=    2.00000
   1         0.99191622
   2         0.03760900
   3         0.00000000
   4         0.00000000
   5         0.00018856
   6        -0.00297769
   7        -0.00591792
   8         0.00000000
   9         0.00329089
  10         0.00274057
  11        -0.00297769
  12        -0.00591792
  13         0.00000000
  14        -0.00329089
  15         0.00274057
  16        -0.00116488
  17         0.00015900
  18         0.00000000
  19         0.00003325
  20        -0.00004054
  21        -0.00116488
  22         0.00015900
  23         0.00000000
  24        -0.00003325
  25        -0.00004054
  26        -0.00699696
  27        -0.00699696
  28         0.00010652
  29         0.00010652
  30        -0.00005378
  31        -0.00005378
Sym=     2a1 
Ene=   -11.0120
Spin= Alpha
Occup=    2.00000
   1         0.00216994
   2        -0.00034714
   3         0.00000000
   4         0.00000000
   5        -0.00049783
   6         0.05284951
   7        -0.00339759
   8         0.00000000
   9         0.00099289
  10        -0.00300088
  11         0.05284951
  12        -0.00339759
  13         0.00000000
  14        -0.00099289
  15        -0.00300088
  16         0.69998999
  17         0.02066199
  18         0.00000000
  19         0.00281201
  20        -0.00112313
  21         0.69998999
  22         0.02066199
  23         0.00000000
  24        -0.00281201
  25        -0.00112313
  26        -0.00008664
  27        -0.00008664
  28        -0.00031904
  29        -0.00031904
  30        -0.00466856
  31        -0.00466856
Sym=     3a1 
Ene=   -11.0080
Spin= Alpha
Occup=    2.00000
   1         0.00543431
   2        -0.00772274
   3         0.00000000
   4         0.00000000
   5        -0.00376890
   6         0.69965874
   7         0.02561919
   8         0.00000000
   9        -0.00070487
  10         0.00123512
  11         0.69965874
  12         0.02561919
  13         0.00000000
  14         0.00070487
  15         0.00123512
  16        -0.05236165
  17        -0.00689167
  18         0.00000000
  19        -0.00133965
  20         0.00330262
  21        -0.05236165
  22        -0.00689167
  23         0.00000000
  24         0.00133965
  25         0.00330262
  26        -0.00015452
  27        -0.00015452
  28        -0.00481750
  29        -0.00481750
  30         0.00037023
  31         0.00037023
Sym=     4a1 
Ene=    -1.0810
Spin= Alpha
Occup=    2.00000
   1        -0.11043425
   2         0.29121855
   3         0.00000000
   4         0.00000000
   5         0.06282336
   6        -0.11214391
   7         0.28031812
   8         0.00000000
   9        -0.07092020
  10         0.03611103
  11        -0.11214391
  12         0.28031812
  13         0.00000000
  14         0.07092020
  15         0.03611103
  16        -0.11316448
  17         0.28393030
  18         0.00000000
  19        -0.03667024
  20        -0.07328353
  21        -0.11316448
  22         0.28393030
  23         0.00000000
  24         0.03667024
  25        -0.07328353
  26         0.05546219
  27         0.05546219
  28         0.05060079
  29         0.05060079
  30         0.05041756
  31         0.05041756
Sym=     5a1 
Ene=    -0.8976
Spin= Alpha
Occup=    2.00000
   1         0.17008485
   2        -0.49501388
   3         0.00000000
   4         0.00000000
   5         0.03373982
   6         0.01913308
   7        -0.05594277
   8         0.00000000
   9         0.03411969
  10         0.14389985
  11         0.01913308
  12        -0.05594277
  13         0.00000000
  14        -0.03411969
  15         0.14389985
  16        -0.11406946
  17         0.32025837
  18         0.00000000
  19        -0.05053458
  20         0.02059692
  21        -0.11406946
  22         0.32025837
  23         0.00000000
  24         0.05053458
  25         0.02059692
  26        -0.15627078
  27        -0.15627078
  28        -0.02371240
  29        -0.02371240
  30         0.10124764
  31         0.10124764
Sym=     6a1 
Ene=    -0.7038
Spin= Alpha
Occup=    2.00000
   1        -0.08357829
   2         0.26256807
   3         0.00000000
   4         0.00000000
   5        -0.16750088
   6         0.10208622
   7        -0.31286210
   8         0.00000000
   9        -0.11743509
  10        -0.03478724
  11         0.10208622
  12        -0.31286210
  13         0.00000000
  14         0.11743509
  15        -0.03478724
  16        -0.05488448
  17         0.17740884
  18         0.00000000
  19        -0.12744047
  20         0.19234285
  21        -0.05488448
  22         0.17740884
  23         0.00000000
  24         0.12744047
  25         0.19234285
  26         0.16235146
  27         0.16235146
  28        -0.19793489
  29        -0.19793489
  30         0.12953923
  31         0.12953923
Sym=     7a1 
Ene=    -0.6440
Spin= Alpha
Occup=    2.00000
   1        -0.00280548
   2         0.01245443
   3         0.00000000
   4         0.00000000
   5        -0.20475716
   6        -0.01714279
   7         0.06421313
   8         0.00000000
   9         0.26186524
  10        -0.06402222
  11        -0.01714279
  12         0.06421313
  13         0.00000000
  14        -0.26186524
  15        -0.06402222
  16        -0.01160316
  17         0.04940350
  18         0.00000000
  19         0.17071923
  20         0.20943340
  21        -0.01160316
  22         0.04940350
  23         0.00000000
  24        -0.17071923
  25         0.20943340
  26         0.09435532
  27         0.09435532
  28         0.21564677
  29         0.21564677
  30         0.20800502
  31         0.20800502
Sym=     8a1 
Ene=    -0.4670
Spin= Alpha
Occup=    2.00000
   1         0.00798477
   2        -0.03903469
   3         0.00000000
   4         0.00000000
   5        -0.38602468
   6         0.01165241
   7        -0.06094787
   8         0.00000000
   9         0.01749981
  10         0.34122641
  11         0.01165241
  12        -0.06094787
  13         0.00000000
  14        -0.01749981
  15         0.34122641
  16        -0.01541829
  17         0.04099607
  18         0.00000000
  19         0.24370867
  20        -0.24574308
  21        -0.01541829
  22         0.04099607
  23         0.00000000
  24        -0.24370867
  25        -0.24574308
  26         0.20910349
  27         0.20910349
  28        -0.12842705
  29        -0.12842705
  30        -0.04362804
  31        -0.04362804
Sym=     9a1 
Ene=    -0.4478
Spin= Alpha
Occup=    2.00000
   1        -0.03577821
   2         0.14025502
   3         0.00000000
   4         0.00000000
   5         0.31971447
   6        -0.01246181
   7         0.05186928
   8         0.00000000
   9        -0.20849866
  10         0.00289404
  11        -0.01246181
  12         0.05186928
  13         0.00000000
  14         0.20849866
  15         0.00289404
  16         0.02870302
  17        -0.11608887
  18         0.00000000
  19         0.40559972
  20         0.08580930
  21         0.02870302
  22        -0.11608887
  23         0.00000000
  24        -0.40559972
  25         0.08580930
  26        -0.12489203
  27        -0.12489203
  28        -0.18653056
  29        -0.18653056
  30         0.25428715
  31         0.25428715
Sym=    10a1 
Ene=     0.6205
Spin= Alpha
Occup=    0.00000
   1         0.01422045
   2        -0.12080121
   3         0.00000000
   4         0.00000000
   5         0.41205839
   6         0.09371204
   7        -0.58748061
   8         0.00000000
   9        -0.26241317
  10         0.23730176
  11         0.09371204
  12        -0.58748061
  13         0.00000000
  14         0.26241317
  15         0.23730176
  16         0.04620697
  17        -0.31275477
  18         0.00000000
  19        -0.16559751
  20        -0.27958906
  21         0.04620697
  22        -0.31275477
  23         0.00000000
  24         0.16559751
  25        -0.27958906
  26         0.29978228
  27         0.29978228
  28         0.65185928
  29         0.65185928
  30         0.48600722
  31         0.48600722
Sym=    11a1 
Ene=     0.6549
Spin= Alpha
Occup=    0.00000
   1        -0.11297926
   2         0.64570704
   3         0.00000000
   4         0.00000000
   5         0.67336910
   6         0.07418194
   7        -0.42163879
   8         0.00000000
   9         0.20189026
  10         0.40581237
  11         0.07418194
  12        -0.42163879
  13         0.00000000
  14        -0.20189026
  15         0.40581237
  16        -0.04823334
  17         0.30269256
  18         0.00000000
  19         0.18347592
  20         0.38432038
  21        -0.04823334
  22         0.30269256
  23         0.00000000
  24        -0.18347592
  25         0.38432038
  26         0.06778486
  27         0.06778486
  28         0.18813054
  29         0.18813054
  30        -0.58224255
  31        -0.58224255
Sym=    12a1 
Ene=     0.7353
Spin= Alpha
Occup=    0.00000
   1         0.18652894
   2        -1.17520732
   3         0.00000000
   4         0.00000000
   5         0.56074324
   6        -0.08344066
   7         0.53448122
   8         0.00000000
   9         0.05542840
  10         0.04530186
  11        -0.08344066
  12         0.53448122
  13         0.00000000
  14        -0.05542840
  15         0.04530186
  16         0.03325778
  17        -0.21090187
  18         0.00000000
  19        -0.09430608
  20         0.23694076
  21         0.03325778
  22        -0.21090187
  23         0.00000000
  24         0.09430608
  25         0.23694076
  26         0.79986865
  27         0.79986865
  28        -0.31131122
  29        -0.31131122
  30        -0.02329783
  31        -0.02329783
Sym=    13a1 
Ene=     0.8326
Spin= Alpha
Occup=    0.00000
   1         0.11585387
   2        -0.74388111
   3         0.00000000
   4         0.00000000
   5        -0.05139970
   6         0.05681254
   7        -0.40517063
   8         0.00000000
   9        -0.37660656
  10        -0.58498610
  11         0.05681254
  12        -0.40517063
  13         0.00000000
  14         0.37660656
  15        -0.58498610
  16        -0.09994393
  17         0.68923433
  18         0.00000000
  19         0.44343763
  20        -0.13066835
  21        -0.09994393
  22         0.68923433
  23         0.00000000
  24        -0.44343763
  25        -0.13066835
  26         0.25755893
  27         0.25755893
  28         0.31509492
  29         0.31509492
  30        -0.40664809
  31        -0.40664809
Sym=    14a1 
Ene=     0.9984
Spin= Alpha
Occup=    0.00000
   1         0.05217868
   2        -0.33955019
   3         0.00000000
   4         0.00000000
   5        -0.60529731
   6        -0.07068507
   7         0.50635560
   8         0.00000000
   9        -0.72153249
  10         0.41734117
  11        -0.07068507
  12         0.50635560
  13         0.00000000
  14         0.72153249
  15         0.41734117
  16         0.04638610
  17        -0.35632805
  18         0.00000000
  19        -0.02662688
  20         0.62077961
  21         0.04638610
  22        -0.35632805
  23         0.00000000
  24         0.02662688
  25         0.62077961
  26        -0.12518575
  27        -0.12518575
  28         0.39016841
  29         0.39016841
  30        -0.22891054
  31        -0.22891054
Sym=     1a2 
Ene=    -0.2254
Spin= Alpha
Occup=    1.84190
   1         0.00000000
   2         0.00000000
   3         0.00000000
   4         0.00000000
   5         0.00000000
   6         0.00000000
   7         0.00000000
   8         0.53105575
   9         0.00000000
  10         0.00000000
  11         0.00000000
  12         0.00000000
  13        -0.53105575
  14         0.00000000
  15         0.00000000
  16         0.00000000
  17         0.00000000
  18         0.41137196
  19         0.00000000
  20         0.00000000
  21         0.00000000
  22         0.00000000
  23        -0.41137196
  24         0.00000000
  25         0.00000000
  26         0.00000000
  27         0.00000000
  28         0.00000000
  29         0.00000000
  30         0.00000000
  31         0.00000000
Sym=     2a2 
Ene=     0.3875
Spin= Alpha
Occup=    0.09762
   1         0.00000000
   2         0.00000000
   3         0.00000000
   4         0.00000000
   5         0.00000000
   6         0.00000000
   7         0.00000000
   8        -0.50978427
   9         0.00000000
  10         0.00000000
  11         0.00000000
  12         0.00000000
  13         0.50978427
  14         0.00000000
  15         0.00000000
  16         0.00000000
  17         0.00000000
  18         0.68771975
  19         0.00000000
  20         0.00000000
  21         0.00000000
  22         0.00000000
  23        -0.68771975
  24         0.00000000
  25         0.00000000
  26         0.00000000
  27         0.00000000
  28         0.00000000
  29         0.00000000
  30         0.00000000
  31         0.00000000
Sym=     1b2 
Ene=   -11.0120
Spin= Alpha
Occup=    2.00000
   1         0.00000000
   2         0.00000000
   3         0.00000000
   4        -0.00031440
   5         0.00000000
   6         0.06963302
   7        -0.00306407
   8         0.00000000
   9         0.00080145
  10        -0.00302344
  11        -0.06963302
  12         0.00306407
  13         0.00000000
  14         0.00080145
  15         0.00302344
  16         0.69783978
  17         0.02906963
  18         0.00000000
  19        -0.00327742
  20        -0.00110909
  21        -0.69783978
  22        -0.02906963
  23         0.00000000
  24        -0.00327742
  25         0.00110909
  26         0.00000000
  27         0.00000000
  28        -0.00028791
  29         0.00028791
  30        -0.00472152
  31         0.00472152
Sym=     2b2 
Ene=   -11.0080
Spin= Alpha
Occup=    2.00000
   1         0.00000000
   2         0.00000000
   3         0.00000000
   4        -0.00459442
   5         0.00000000
   6         0.69812811
   7         0.02555805
   8         0.00000000
   9        -0.00095253
  10         0.00148204
  11        -0.69812811
  12        -0.02555805
  13         0.00000000
  14        -0.00095253
  15        -0.00148204
  16        -0.06922220
  17        -0.00841873
  18         0.00000000
  19        -0.00090203
  20         0.00298399
  21         0.06922220
  22         0.00841873
  23         0.00000000
  24        -0.00090203
  25        -0.00298399
  26         0.00000000
  27         0.00000000
  28        -0.00465755
  29         0.00465755
  30         0.00067138
  31        -0.00067138
Sym=     3b2 
Ene=    -0.9030
Spin= Alpha
Occup=    2.00000
   1         0.00000000
   2         0.00000000
   3         0.00000000
   4         0.12043928
   5         0.00000000
   6        -0.14444267
   7         0.40242111
   8         0.00000000
   9         0.00454151
  10         0.07323906
  11         0.14444267
  12        -0.40242111
  13         0.00000000
  14         0.00454151
  15        -0.07323906
  16        -0.10264337
  17         0.28322112
  18         0.00000000
  19         0.10365683
  20        -0.09019490
  21         0.10264337
  22        -0.28322112
  23         0.00000000
  24         0.10365683
  25         0.09019490
  26         0.00000000
  27         0.00000000
  28         0.12540456
  29        -0.12540456
  30         0.08752453
  31        -0.08752453
Sym=     4b2 
Ene=    -0.6752
Spin= Alpha
Occup=    2.00000
   1         0.00000000
   2         0.00000000
   3         0.00000000
   4        -0.21106368
   5         0.00000000
   6         0.07105056
   7        -0.22964828
   8         0.00000000
   9        -0.06408784
  10         0.20071468
  11        -0.07105056
  12         0.22964828
  13         0.00000000
  14        -0.06408784
  15        -0.20071468
  16        -0.10030367
  17         0.30985624
  18         0.00000000
  19         0.12929232
  20         0.09506619
  21         0.10030367
  22        -0.30985624
  23         0.00000000
  24         0.12929232
  25        -0.09506619
  26         0.00000000
  27         0.00000000
  28        -0.18288217
  29         0.18288217
  30         0.23865290
  31        -0.23865290
Sym=     5b2 
Ene=    -0.5047
Spin= Alpha
Occup=    2.00000
   1         0.00000000
   2         0.00000000
   3         0.00000000
   4        -0.02718452
   5         0.00000000
   6         0.03178950
   7        -0.09994124
   8         0.00000000
   9         0.26107928
  10        -0.23200204
  11        -0.03178950
  12         0.09994124
  13         0.00000000
  14         0.26107928
  15         0.23200204
  16         0.01416510
  17        -0.03779869
  18         0.00000000
  19         0.03739761
  20         0.33735291
  21        -0.01416510
  22         0.03779869
  23         0.00000000
  24         0.03739761
  25        -0.33735291
  26         0.00000000
  27         0.00000000
  28         0.24337978
  29        -0.24337978
  30         0.25778478
  31        -0.25778478
Sym=     6b2 
Ene=    -0.4409
Spin= Alpha
Occup=    2.00000
   1         0.00000000
   2         0.00000000
   3         0.00000000
   4        -0.50766281
   5         0.00000000
   6         0.00970982
   7        -0.05117095
   8         0.00000000
   9         0.31514700
  10         0.24636485
  11        -0.00970982
  12         0.05117095
  13         0.00000000
  14         0.31514700
  15        -0.24636485
  16         0.01275579
  17        -0.05065921
  18         0.00000000
  19         0.01114516
  20        -0.14262311
  21        -0.01275579
  22         0.05065921
  23         0.00000000
  24         0.01114516
  25         0.14262311
  26         0.00000000
  27         0.00000000
  28         0.21787294
  29        -0.21787294
  30        -0.15675626
  31         0.15675626
Sym=     7b2 
Ene=     0.6014
Spin= Alpha
Occup=    0.00000
   1         0.00000000
   2         0.00000000
   3         0.00000000
   4         0.82335885
   5         0.00000000
   6         0.05586508
   7        -0.31704855
   8         0.00000000
   9         0.47677978
  10         0.21736265
  11        -0.05586508
  12         0.31704855
  13         0.00000000
  14         0.47677978
  15        -0.21736265
  16         0.04027227
  17        -0.22365266
  18         0.00000000
  19         0.54518895
  20        -0.05192864
  21        -0.04027227
  22         0.22365266
  23         0.00000000
  24         0.54518895
  25         0.05192864
  26         0.00000000
  27         0.00000000
  28        -0.23317279
  29         0.23317279
  30        -0.15058070
  31         0.15058070
Sym=     8b2 
Ene=     0.6791
Spin= Alpha
Occup=    0.00000
   1         0.00000000
   2         0.00000000
   3         0.00000000
   4         0.39419967
   5         0.00000000
   6         0.10969429
   7        -0.67191857
   8         0.00000000
   9        -0.06367001
  10         0.01815971
  11        -0.10969429
  12         0.67191857
  13         0.00000000
  14        -0.06367001
  15        -0.01815971
  16        -0.16185521
  17         0.98834118
  18         0.00000000
  19        -0.20584460
  20         0.14263195
  21         0.16185521
  22        -0.98834118
  23         0.00000000
  24        -0.20584460
  25        -0.14263195
  26         0.00000000
  27         0.00000000
  28         0.42910796
  29        -0.42910796
  30        -0.54411493
  31         0.54411493
Sym=     9b2 
Ene=     0.7482
Spin= Alpha
Occup=    0.00000
   1         0.00000000
   2         0.00000000
   3         0.00000000
   4         0.35551335
   5         0.00000000
   6         0.08196031
   7        -0.55074961
   8         0.00000000
   9        -0.36829611
  10         0.31486570
  11        -0.08196031
  12         0.55074961
  13         0.00000000
  14        -0.36829611
  15        -0.31486570
  16         0.07215825
  17        -0.48370995
  18         0.00000000
  19        -0.04774685
  20        -0.38295677
  21        -0.07215825
  22         0.48370995
  23         0.00000000
  24        -0.04774685
  25         0.38295677
  26         0.00000000
  27         0.00000000
  28         0.65214329
  29        -0.65214329
  30         0.53412106
  31        -0.53412106
Sym=    10b2 
Ene=     0.9246
Spin= Alpha
Occup=    0.00000
   1         0.00000000
   2         0.00000000
   3         0.00000000
   4         0.45447230
   5         0.00000000
   6        -0.03661828
   7         0.28020779
   8         0.00000000
   9         0.38087777
  10         0.51226153
  11         0.03661828
  12        -0.28020779
  13         0.00000000
  14         0.38087777
  15        -0.51226153
  16         0.00387346
  17        -0.05910323
  18         0.00000000
  19        -0.85543196
  20         0.18226577
  21        -0.00387346
  22         0.05910323
  23         0.00000000
  24        -0.85543196
  25        -0.18226577
  26         0.00000000
  27         0.00000000
  28        -0.26363531
  29         0.26363531
  30         0.27348107
  31        -0.27348107
Sym=    11b2 
Ene=     1.1189
Spin= Alpha
Occup=    0.00000
   1         0.00000000
   2         0.00000000
   3         0.00000000
   4        -0.00163036
   5         0.00000000
   6        -0.05905035
   7         0.46985252
   8         0.00000000
   9        -0.46297084
  10         0.60453477
  11         0.05905035
  12        -0.46985252
  13         0.00000000
  14        -0.46297084
  15        -0.60453477
  16         0.07796105
  17        -0.59424461
  18         0.00000000
  19         0.24558295
  20         0.88360921
  21        -0.07796105
  22         0.59424461
  23         0.00000000
  24         0.24558295
  25        -0.88360921
  26         0.00000000
  27         0.00000000
  28         0.25573702
  29        -0.25573702
  30        -0.36870893
  31         0.36870893
Sym=     1b1 
Ene=    -0.5366
Spin= Alpha
Occup=    1.99973
   1         0.00000000
   2         0.00000000
   3         0.56476124
   4         0.00000000
   5         0.00000000
   6         0.00000000
   7         0.00000000
   8         0.05991756
   9         0.00000000
  10         0.00000000
  11         0.00000000
  12         0.00000000
  13         0.05991756
  14         0.00000000
  15         0.00000000
  16         0.00000000
  17         0.00000000
  18        -0.02915937
  19         0.00000000
  20         0.00000000
  21         0.00000000
  22         0.00000000
  23        -0.02915937
  24         0.00000000
  25         0.00000000
  26         0.41770742
  27        -0.41770742
  28         0.00000000
  29         0.00000000
  30         0.00000000
  31         0.00000000
Sym=     2b1 
Ene=    -0.3602
Spin= Alpha
Occup=    1.90416
   1         0.00000000
   2         0.00000000
   3        -0.03177623
   4         0.00000000
   5         0.00000000
   6         0.00000000
   7         0.00000000
   8         0.36001373
   9         0.00000000
  10         0.00000000
  11         0.00000000
  12         0.00000000
  13         0.36001373
  14         0.00000000
  15         0.00000000
  16         0.00000000
  17         0.00000000
  18         0.48387530
  19         0.00000000
  20         0.00000000
  21         0.00000000
  22         0.00000000
  23         0.48387530
  24         0.00000000
  25         0.00000000
  26        -0.09878528
  27         0.09878528
  28         0.00000000
  29         0.00000000
  30         0.00000000
  31         0.00000000
Sym=     3b1 
Ene=     0.2417
Spin= Alpha
Occup=    0.15660
   1         0.00000000
   2         0.00000000
   3         0.08231587
   4         0.00000000
   5         0.00000000
   6         0.00000000
   7         0.00000000
   8        -0.62498719
   9         0.00000000
  10         0.00000000
  11         0.00000000
  12         0.00000000
  13        -0.62498719
  14         0.00000000
  15         0.00000000
  16         0.00000000
  17         0.00000000
  18         0.46341900
  19         0.00000000
  20         0.00000000
  21         0.00000000
  22         0.00000000
  23         0.46341900
  24         0.00000000
  25         0.00000000
  26         0.14279831
  27        -0.14279831
  28         0.00000000
  29         0.00000000
  30         0.00000000
  31         0.00000000
Sym=     4b1 
Ene=     0.7328
Spin= Alpha
Occup=    0.00000
   1         0.00000000
   2         0.00000000
   3        -1.12781133
   4         0.00000000
   5         0.00000000
   6         0.00000000
   7         0.00000000
   8         0.15060168
   9         0.00000000
  10         0.00000000
  11         0.00000000
  12         0.00000000
  13         0.15060168
  14         0.00000000
  15         0.00000000
  16         0.00000000
  17         0.00000000
  18        -0.00515358
  19         0.00000000
  20         0.00000000
  21         0.00000000
  22         0.00000000
  23        -0.00515358
  24         0.00000000
  25         0.00000000
  26         0.84875700
  27        -0.84875700
  28         0.00000000
  29         0.00000000
  30         0.00000000
  31         0.00000000
