[Molden Format]
[N_Atoms]
 11
[Atoms] (AU)
C1          1      6           0.00000000      0.00000000      0.00000000
C2          2      6           0.00000000      2.22264400      1.77431400
C2          3      6           0.00000000     -2.22264400      1.77431400
C3          4      6           0.00000000      1.38446000      4.16779300
C3          5      6           0.00000000     -1.38446000      4.16779300
H1          6      1           1.66203300      0.00000000     -1.24562300
H1          7      1          -1.66203300      0.00000000     -1.24562300
H2          8      1           0.00000000      4.16784400      1.14977800
H2          9      1           0.00000000     -4.16784400      1.14977800
H3         10      1           0.00000000      2.54863700      5.84907800
H3         11      1           0.00000000     -2.54863700      5.84907800
[Charge] (Mulliken)
 0.00000000000000
 0.00000000000000
 0.00000000000000
 0.00000000000000
 0.00000000000000
 0.00000000000000
 0.00000000000000
 0.00000000000000
 0.00000000000000
 0.00000000000000
 0.00000000000000
[GTO] (AU)
   1
   s   3
  7.161683735E+01  1.543289673E-01
  1.304509632E+01  5.353281423E-01
  3.530512160E+00  4.446345422E-01
   s   3
  2.941249355E+00 -9.996722919E-02
  6.834830964E-01  3.995128261E-01
  2.222899159E-01  7.001154689E-01
   p   3
  2.941249355E+00  1.559162750E-01
  6.834830964E-01  6.076837186E-01
  2.222899159E-01  3.919573931E-01
 
   2
   s   3
  7.161683735E+01  1.543289673E-01
  1.304509632E+01  5.353281423E-01
  3.530512160E+00  4.446345422E-01
   s   3
  2.941249355E+00 -9.996722919E-02
  6.834830964E-01  3.995128261E-01
  2.222899159E-01  7.001154689E-01
   p   3
  2.941249355E+00  1.559162750E-01
  6.834830964E-01  6.076837186E-01
  2.222899159E-01  3.919573931E-01
 
   3
   s   3
  7.161683735E+01  1.543289673E-01
  1.304509632E+01  5.353281423E-01
  3.530512160E+00  4.446345422E-01
   s   3
  2.941249355E+00 -9.996722919E-02
  6.834830964E-01  3.995128261E-01
  2.222899159E-01  7.001154689E-01
   p   3
  2.941249355E+00  1.559162750E-01
  6.834830964E-01  6.076837186E-01
  2.222899159E-01  3.919573931E-01
 
   4
   s   3
  7.161683735E+01  1.543289673E-01
  1.304509632E+01  5.353281423E-01
  3.530512160E+00  4.446345422E-01
   s   3
  2.941249355E+00 -9.996722919E-02
  6.834830964E-01  3.995128261E-01
  2.222899159E-01  7.001154689E-01
   p   3
  2.941249355E+00  1.559162750E-01
  6.834830964E-01  6.076837186E-01
  2.222899159E-01  3.919573931E-01
 
   5
   s   3
  7.161683735E+01  1.543289673E-01
  1.304509632E+01  5.353281423E-01
  3.530512160E+00  4.446345422E-01
   s   3
  2.941249355E+00 -9.996722919E-02
  6.834830964E-01  3.995128261E-01
  2.222899159E-01  7.001154689E-01
   p   3
  2.941249355E+00  1.559162750E-01
  6.834830964E-01  6.076837186E-01
  2.222899159E-01  3.919573931E-01
 
   6
   s   3
  3.425250914E+00  1.543289673E-01
  6.239137298E-01  5.353281423E-01
  1.688554040E-01  4.446345422E-01
 
   7
   s   3
  3.425250914E+00  1.543289673E-01
  6.239137298E-01  5.353281423E-01
  1.688554040E-01  4.446345422E-01
 
   8
   s   3
  3.425250914E+00  1.543289673E-01
  6.239137298E-01  5.353281423E-01
  1.688554040E-01  4.446345422E-01
 
   9
   s   3
  3.425250914E+00  1.543289673E-01
  6.239137298E-01  5.353281423E-01
  1.688554040E-01  4.446345422E-01
 
  10
   s   3
  3.425250914E+00  1.543289673E-01
  6.239137298E-01  5.353281423E-01
  1.688554040E-01  4.446345422E-01
 
  11
   s   3
  3.425250914E+00  1.543289673E-01
  6.239137298E-01  5.353281423E-01
  1.688554040E-01  4.446345422E-01
 
[MO]
Sym=     1a1 
Ene=   -11.3790
Spin= Alpha
Occup=    2.00000
   1         0.38064393
   2         0.01076025
   3         0.00000000
   4         0.00000000
   5         0.00156918
   6         0.44086354
   7         0.01246414
   8         0.00000000
   9        -0.00148966
  10         0.00099910
  11         0.44086354
  12         0.01246414
  13         0.00000000
  14         0.00148966
  15         0.00099910
  16         0.47185047
  17         0.01333230
  18         0.00000000
  19        -0.00088253
  20        -0.00158019
  21         0.47185047
  22         0.01333230
  23         0.00000000
  24         0.00088253
  25        -0.00158019
  26         0.00163760
  27         0.00163760
  28         0.00181270
  29         0.00181270
  30         0.00193945
  31         0.00193945
Sym=     2a1 
Ene=   -11.3370
Spin= Alpha
Occup=    2.00000
   1        -0.72725365
   2        -0.01599161
   3         0.00000000
   4         0.00000000
   5        -0.00015228
   6        -0.16614238
   7        -0.00364048
   8         0.00000000
   9         0.00070543
  10         0.00243241
  11        -0.16614238
  12        -0.00364048
  13         0.00000000
  14        -0.00070543
  15         0.00243241
  16         0.44861681
  17         0.00985125
  18         0.00000000
  19        -0.00111524
  20         0.00076049
  21         0.44861681
  22         0.00985125
  23         0.00000000
  24         0.00111524
  25         0.00076049
  26        -0.00249900
  27        -0.00249900
  28        -0.00060678
  29        -0.00060678
  30         0.00158997
  31         0.00158997
Sym=     3a1 
Ene=   -11.3040
Spin= Alpha
Occup=    2.00000
   1         0.55988215
   2         0.00937873
   3         0.00000000
   4         0.00000000
   5        -0.00126246
   6        -0.52093859
   7        -0.00870736
   8         0.00000000
   9        -0.00114989
  10         0.00004034
  11        -0.52093859
  12        -0.00870736
  13         0.00000000
  14         0.00114989
  15         0.00004034
  16         0.26087858
  17         0.00435006
  18         0.00000000
  19        -0.00107038
  20         0.00146689
  21         0.26087858
  22         0.00435006
  23         0.00000000
  24         0.00107038
  25         0.00146689
  26         0.00148208
  27         0.00148208
  28        -0.00152737
  29        -0.00152737
  30         0.00077106
  31         0.00077106
Sym=     4a1 
Ene=    -1.5873
Spin= Alpha
Occup=    2.00000
   1        -0.12441243
   2         0.28676962
   3         0.00000000
   4         0.00000000
   5         0.06266978
   6        -0.11893375
   7         0.27251978
   8         0.00000000
   9        -0.06975078
  10         0.01727630
  11        -0.11893375
  12         0.27251978
  13         0.00000000
  14         0.06975078
  15         0.01727630
  16        -0.11602582
  17         0.26435160
  18         0.00000000
  19        -0.03966492
  20        -0.06107193
  21        -0.11602582
  22         0.26435160
  23         0.00000000
  24         0.03966492
  25        -0.06107193
  26         0.09108617
  27         0.09108617
  28         0.07109082
  29         0.07109082
  30         0.06728844
  31         0.06728844
Sym=     5a1 
Ene=    -1.1773
Spin= Alpha
Occup=    2.00000
   1         0.15057070
   2        -0.39132550
   3         0.00000000
   4         0.00000000
   5         0.07090409
   6         0.01729980
   7        -0.04859321
   8         0.00000000
   9         0.02236715
  10         0.14447755
  11         0.01729980
  12        -0.04859321
  13         0.00000000
  14        -0.02236715
  15         0.14447755
  16        -0.11967950
  17         0.31145450
  18         0.00000000
  19        -0.03848953
  20         0.05673744
  21        -0.11967950
  22         0.31145450
  23         0.00000000
  24         0.03848953
  25         0.05673744
  26        -0.19272596
  27        -0.19272596
  28        -0.03335790
  29        -0.03335790
  30         0.14701764
  31         0.14701764
Sym=     6a1 
Ene=    -0.8693
Spin= Alpha
Occup=    2.00000
   1         0.07852782
   2        -0.22385059
   3         0.00000000
   4         0.00000000
   5         0.13237509
   6        -0.09865099
   7         0.28426523
   8         0.00000000
   9         0.17164891
  10         0.03061862
  11        -0.09865099
  12         0.28426523
  13         0.00000000
  14        -0.17164891
  15         0.03061862
  16         0.04263658
  17        -0.12803461
  18         0.00000000
  19         0.14831510
  20        -0.16363335
  21         0.04263658
  22        -0.12803461
  23         0.00000000
  24        -0.14831510
  25        -0.16363335
  26        -0.16616915
  27        -0.16616915
  28         0.25206749
  29         0.25206749
  30        -0.10025201
  31        -0.10025201
Sym=     7a1 
Ene=    -0.8371
Spin= Alpha
Occup=    2.00000
   1        -0.01299332
   2         0.04460131
   3         0.00000000
   4         0.00000000
   5        -0.24495407
   6         0.00550357
   7        -0.00095645
   8         0.00000000
   9         0.23569801
  10        -0.05903492
  11         0.00550357
  12        -0.00095645
  13         0.00000000
  14        -0.23569801
  15        -0.05903492
  16        -0.01043424
  17         0.04933633
  18         0.00000000
  19         0.15717440
  20         0.23038955
  21        -0.01043424
  22         0.04933633
  23         0.00000000
  24        -0.15717440
  25         0.23038955
  26         0.13586794
  27         0.13586794
  28         0.17298207
  29         0.17298207
  30         0.22611781
  31         0.22611781
Sym=     8a1 
Ene=    -0.5798
Spin= Alpha
Occup=    2.00000
   1        -0.00570373
   2         0.02201585
   3         0.00000000
   4         0.00000000
   5        -0.19570535
   6         0.00304443
   7        -0.03337513
   8         0.00000000
   9        -0.06385740
  10         0.31939997
  11         0.00304443
  12        -0.03337513
  13         0.00000000
  14         0.06385740
  15         0.31939997
  16        -0.00535638
  17         0.00249151
  18         0.00000000
  19         0.38105263
  20        -0.20475327
  21        -0.00535638
  22         0.00249151
  23         0.00000000
  24        -0.38105263
  25        -0.20475327
  26         0.13936341
  27         0.13936341
  28        -0.20222904
  29        -0.20222904
  30         0.05485425
  31         0.05485425
Sym=     9a1 
Ene=    -0.5538
Spin= Alpha
Occup=    2.00000
   1        -0.04972078
   2         0.17562044
   3         0.00000000
   4         0.00000000
   5         0.44165960
   6        -0.01830752
   7         0.07090003
   8         0.00000000
   9        -0.19570031
  10        -0.17195470
  11        -0.01830752
  12         0.07090003
  13         0.00000000
  14         0.19570031
  15        -0.17195470
  16         0.04392159
  17        -0.14683098
  18         0.00000000
  19         0.28887137
  20         0.15832839
  21         0.04392159
  22        -0.14683098
  23         0.00000000
  24        -0.28887137
  25         0.15832839
  26        -0.17871949
  27        -0.17871949
  28        -0.10622345
  29        -0.10622345
  30         0.24038828
  31         0.24038828
Sym=    10a1 
Ene=    -0.1802
Spin= Alpha
Occup=    0.00000
   1        -0.03726422
   2         0.19403173
   3         0.00000000
   4         0.00000000
   5         0.94028453
   6         0.06761471
   7        -0.39806330
   8         0.00000000
   9         0.10572731
  10         0.52305848
  11         0.06761471
  12        -0.39806330
  13         0.00000000
  14        -0.10572731
  15         0.52305848
  16         0.00852269
  17        -0.06948656
  18         0.00000000
  19        -0.01896502
  20         0.27911460
  21         0.00852269
  22        -0.06948656
  23         0.00000000
  24         0.01896502
  25         0.27911460
  26         0.42671160
  27         0.42671160
  28         0.31326566
  29         0.31326566
  30        -0.19422769
  31        -0.19422769
Sym=    11a1 
Ene=    -0.1746
Spin= Alpha
Occup=    0.00000
   1         0.04851022
   2        -0.30601204
   3         0.00000000
   4         0.00000000
   5        -0.01614264
   6         0.05611058
   7        -0.38072759
   8         0.00000000
   9        -0.32865303
  10         0.00689787
  11         0.05611058
  12        -0.38072759
  13         0.00000000
  14         0.32865303
  15         0.00689787
  16         0.05727308
  17        -0.38975869
  18         0.00000000
  19        -0.22149664
  20        -0.45470668
  21         0.05727308
  22        -0.38975869
  23         0.00000000
  24         0.22149664
  25        -0.45470668
  26         0.15011153
  27         0.15011153
  28         0.51033990
  29         0.51033990
  30         0.69526374
  31         0.69526374
Sym=    12a1 
Ene=    -0.1485
Spin= Alpha
Occup=    0.00000
   1         0.15307706
   2        -0.95229272
   3         0.00000000
   4         0.00000000
   5         0.46093418
   6        -0.08399128
   7         0.53319626
   8         0.00000000
   9         0.34189189
  10        -0.16240831
  11        -0.08399128
  12         0.53319626
  13         0.00000000
  14        -0.34189189
  15        -0.16240831
  16         0.03970754
  17        -0.24808209
  18         0.00000000
  19        -0.19852696
  20        -0.11220930
  21         0.03970754
  22        -0.24808209
  23         0.00000000
  24         0.19852696
  25        -0.11220930
  26         0.61354428
  27         0.61354428
  28        -0.57298104
  29        -0.57298104
  30         0.28783250
  31         0.28783250
Sym=    13a1 
Ene=    -0.1409
Spin= Alpha
Occup=    0.00000
   1         0.17328840
   2        -1.14105126
   3         0.00000000
   4         0.00000000
   5         0.00472163
   6         0.01787049
   7        -0.13995005
   8         0.00000000
   9        -0.48750765
  10        -0.43665703
  11         0.01787049
  12        -0.13995005
  13         0.00000000
  14         0.48750765
  15        -0.43665703
  16        -0.07258159
  17         0.51464435
  18         0.00000000
  19         0.37833990
  20         0.06187601
  21        -0.07258159
  22         0.51464435
  23         0.00000000
  24        -0.37833990
  25         0.06187601
  26         0.44963673
  27         0.44963673
  28         0.30394788
  29         0.30394788
  30        -0.42115742
  31        -0.42115742
Sym=    14a1 
Ene=    -0.1177
Spin= Alpha
Occup=    0.00000
   1         0.08007281
   2        -0.53630057
   3         0.00000000
   4         0.00000000
   5        -0.48635317
   6        -0.11414105
   7         0.82897129
   8         0.00000000
   9        -0.56515300
  10         0.49517128
  11        -0.11414105
  12         0.82897129
  13         0.00000000
  14         0.56515300
  15         0.49517128
  16         0.08286804
  17        -0.62724534
  18         0.00000000
  19        -0.18927980
  20         0.61923775
  21         0.08286804
  22        -0.62724534
  23         0.00000000
  24         0.18927980
  25         0.61923775
  26         0.01176155
  27         0.01176155
  28         0.13084459
  29         0.13084459
  30        -0.03147693
  31        -0.03147693
Sym=     1a2 
Ene=    -0.4727
Spin= Alpha
Occup=    2.00000
   1         0.00000000
   2         0.00000000
   3         0.00000000
   4         0.00000000
   5         0.00000000
   6         0.00000000
   7         0.00000000
   8         0.55533209
   9         0.00000000
  10         0.00000000
  11         0.00000000
  12         0.00000000
  13        -0.55533209
  14         0.00000000
  15         0.00000000
  16         0.00000000
  17         0.00000000
  18         0.37809823
  19         0.00000000
  20         0.00000000
  21         0.00000000
  22         0.00000000
  23        -0.37809823
  24         0.00000000
  25         0.00000000
  26         0.00000000
  27         0.00000000
  28         0.00000000
  29         0.00000000
  30         0.00000000
  31         0.00000000
Sym=     2a2 
Ene=    -0.2873
Spin= Alpha
Occup=    0.00000
   1         0.00000000
   2         0.00000000
   3         0.00000000
   4         0.00000000
   5         0.00000000
   6         0.00000000
   7         0.00000000
   8        -0.48495086
   9         0.00000000
  10         0.00000000
  11         0.00000000
  12         0.00000000
  13         0.48495086
  14         0.00000000
  15         0.00000000
  16         0.00000000
  17         0.00000000
  18         0.71227199
  19         0.00000000
  20         0.00000000
  21         0.00000000
  22         0.00000000
  23        -0.71227199
  24         0.00000000
  25         0.00000000
  26         0.00000000
  27         0.00000000
  28         0.00000000
  29         0.00000000
  30         0.00000000
  31         0.00000000
Sym=     1b2 
Ene=   -11.3440
Spin= Alpha
Occup=    2.00000
   1         0.00000000
   2         0.00000000
   3         0.00000000
   4         0.00207333
   5         0.00000000
   6         0.57526393
   7         0.01333942
   8         0.00000000
   9        -0.00010422
  10         0.00112918
  11        -0.57526393
  12        -0.01333942
  13         0.00000000
  14        -0.00010422
  15        -0.00112918
  16         0.40217903
  17         0.00929824
  18         0.00000000
  19         0.00175636
  20        -0.00159623
  21        -0.40217903
  22        -0.00929824
  23         0.00000000
  24         0.00175636
  25         0.00159623
  26         0.00000000
  27         0.00000000
  28         0.00210149
  29        -0.00210149
  30         0.00146061
  31        -0.00146061
Sym=     2b2 
Ene=   -11.3010
Spin= Alpha
Occup=    2.00000
   1         0.00000000
   2         0.00000000
   3         0.00000000
   4        -0.00127038
   5         0.00000000
   6        -0.40371827
   7        -0.00652433
   8         0.00000000
   9        -0.00054292
  10         0.00158832
  11         0.40371827
  12         0.00652433
  13         0.00000000
  14        -0.00054292
  15        -0.00158832
  16         0.57746988
  17         0.00929496
  18         0.00000000
  19         0.00084577
  20         0.00109855
  21        -0.57746988
  22        -0.00929496
  23         0.00000000
  24         0.00084577
  25        -0.00109855
  26         0.00000000
  27         0.00000000
  28        -0.00116973
  29         0.00116973
  30         0.00165211
  31        -0.00165211
Sym=     3b2 
Ene=    -1.1568
Spin= Alpha
Occup=    2.00000
   1         0.00000000
   2         0.00000000
   3         0.00000000
   4         0.12669229
   5         0.00000000
   6        -0.14046979
   7         0.36788601
   8         0.00000000
   9         0.05604836
  10         0.04321297
  11         0.14046979
  12        -0.36788601
  13         0.00000000
  14         0.05604836
  15        -0.04321297
  16        -0.09606888
  17         0.24832075
  18         0.00000000
  19         0.12051352
  20        -0.04976898
  21         0.09606888
  22        -0.24832075
  23         0.00000000
  24         0.12051352
  25         0.04976898
  26         0.00000000
  27         0.00000000
  28         0.18133797
  29        -0.18133797
  30         0.12279607
  31        -0.12279607
Sym=     4b2 
Ene=    -0.8380
Spin= Alpha
Occup=    2.00000
   1         0.00000000
   2         0.00000000
   3         0.00000000
   4        -0.21709606
   5         0.00000000
   6         0.06456214
   7        -0.19711758
   8         0.00000000
   9        -0.05517664
  10         0.20360812
  11        -0.06456214
  12         0.19711758
  13         0.00000000
  14        -0.05517664
  15        -0.20360812
  16        -0.09584492
  17         0.27777583
  18         0.00000000
  19         0.13689372
  20         0.10588368
  21         0.09584492
  22        -0.27777583
  23         0.00000000
  24         0.13689372
  25        -0.10588368
  26         0.00000000
  27         0.00000000
  28        -0.18622564
  29         0.18622564
  30         0.26388843
  31        -0.26388843
Sym=     5b2 
Ene=    -0.5938
Spin= Alpha
Occup=    2.00000
   1         0.00000000
   2         0.00000000
   3         0.00000000
   4        -0.08954390
   5         0.00000000
   6         0.05253078
   7        -0.16005879
   8         0.00000000
   9         0.27922792
  10        -0.22599319
  11        -0.05253078
  12         0.16005879
  13         0.00000000
  14         0.27922792
  15         0.22599319
  16         0.03302621
  17        -0.09188617
  18         0.00000000
  19         0.00380495
  20         0.33174423
  21        -0.03302621
  22         0.09188617
  23         0.00000000
  24         0.00380495
  25        -0.33174423
  26         0.00000000
  27         0.00000000
  28         0.24461647
  29        -0.24461647
  30         0.22793656
  31        -0.22793656
Sym=     6b2 
Ene=    -0.5699
Spin= Alpha
Occup=    2.00000
   1         0.00000000
   2         0.00000000
   3         0.00000000
   4        -0.50990871
   5         0.00000000
   6         0.00700455
   7        -0.03322866
   8         0.00000000
   9         0.28684910
  10         0.26849231
  11        -0.00700455
  12         0.03322866
  13         0.00000000
  14         0.28684910
  15        -0.26849231
  16         0.01329303
  17        -0.05901806
  18         0.00000000
  19         0.01260786
  20        -0.15862668
  21        -0.01329303
  22         0.05901806
  23         0.00000000
  24         0.01260786
  25         0.15862668
  26         0.00000000
  27         0.00000000
  28         0.19296487
  29        -0.19296487
  30        -0.18576531
  31         0.18576531
Sym=     7b2 
Ene=    -0.1940
Spin= Alpha
Occup=    0.00000
   1         0.00000000
   2         0.00000000
   3         0.00000000
   4         0.87871840
   5         0.00000000
   6         0.05639924
   7        -0.32817946
   8         0.00000000
   9         0.50696419
  10         0.26705398
  11        -0.05639924
  12         0.32817946
  13         0.00000000
  14         0.50696419
  15        -0.26705398
  16         0.03496065
  17        -0.20562780
  18         0.00000000
  19         0.47625617
  20        -0.00204146
  21        -0.03496065
  22         0.20562780
  23         0.00000000
  24         0.47625617
  25         0.00204146
  26         0.00000000
  27         0.00000000
  28        -0.23771374
  29         0.23771374
  30        -0.16907580
  31         0.16907580
Sym=     8b2 
Ene=    -0.1609
Spin= Alpha
Occup=    0.00000
   1         0.00000000
   2         0.00000000
   3         0.00000000
   4         0.58961276
   5         0.00000000
   6         0.09438163
   7        -0.59075968
   8         0.00000000
   9        -0.19300039
  10         0.44773304
  11        -0.09438163
  12         0.59075968
  13         0.00000000
  14        -0.19300039
  15        -0.44773304
  16        -0.08034315
  17         0.46529626
  18         0.00000000
  19        -0.48981140
  20         0.16405673
  21         0.08034315
  22        -0.46529626
  23         0.00000000
  24        -0.48981140
  25        -0.16405673
  26         0.00000000
  27         0.00000000
  28         0.59857984
  29        -0.59857984
  30        -0.13807383
  31         0.13807383
Sym=     9b2 
Ene=    -0.1544
Spin= Alpha
Occup=    0.00000
   1         0.00000000
   2         0.00000000
   3         0.00000000
   4         0.13666236
   5         0.00000000
   6         0.03590328
   7        -0.28560899
   8         0.00000000
   9        -0.24979023
  10         0.16131127
  11        -0.03590328
  12         0.28560899
  13         0.00000000
  14        -0.24979023
  15        -0.16131127
  16         0.12473910
  17        -0.81755582
  18         0.00000000
  19         0.11348282
  20        -0.53052666
  21        -0.12473910
  22         0.81755582
  23         0.00000000
  24         0.11348282
  25         0.53052666
  26         0.00000000
  27         0.00000000
  28         0.36353080
  29        -0.36353080
  30         0.72108353
  31        -0.72108353
Sym=    10b2 
Ene=    -0.1410
Spin= Alpha
Occup=    0.00000
   1         0.00000000
   2         0.00000000
   3         0.00000000
   4        -0.21586642
   5         0.00000000
   6         0.06921420
   7        -0.47575785
   8         0.00000000
   9        -0.46527659
  10        -0.32047729
  11        -0.06921420
  12         0.47575785
  13         0.00000000
  14        -0.46527659
  15         0.32047729
  16        -0.03118853
  17         0.19974052
  18         0.00000000
  19         0.80637677
  20        -0.00398426
  21         0.03118853
  22        -0.19974052
  23         0.00000000
  24         0.80637677
  25         0.00398426
  26         0.00000000
  27         0.00000000
  28         0.47773521
  29        -0.47773521
  30        -0.44568937
  31         0.44568937
Sym=    11b2 
Ene=    -0.1057
Spin= Alpha
Occup=    0.00000
   1         0.00000000
   2         0.00000000
   3         0.00000000
   4        -0.06791298
   5         0.00000000
   6        -0.08606144
   7         0.67256860
   8         0.00000000
   9        -0.41232924
  10         0.61821263
  11         0.08606144
  12        -0.67256860
  13         0.00000000
  14        -0.41232924
  15        -0.61821263
  16         0.11469672
  17        -0.87008601
  18         0.00000000
  19         0.20486229
  20         0.83413547
  21        -0.11469672
  22         0.87008601
  23         0.00000000
  24         0.20486229
  25        -0.83413547
  26         0.00000000
  27         0.00000000
  28         0.11817629
  29        -0.11817629
  30        -0.17735441
  31         0.17735441
Sym=     1b1 
Ene=    -0.7230
Spin= Alpha
Occup=    2.00000
   1         0.00000000
   2         0.00000000
   3         0.48339670
   4         0.00000000
   5         0.00000000
   6         0.00000000
   7         0.00000000
   8         0.24495240
   9         0.00000000
  10         0.00000000
  11         0.00000000
  12         0.00000000
  13         0.24495240
  14         0.00000000
  15         0.00000000
  16         0.00000000
  17         0.00000000
  18         0.16976275
  19         0.00000000
  20         0.00000000
  21         0.00000000
  22         0.00000000
  23         0.16976275
  24         0.00000000
  25         0.00000000
  26         0.32152559
  27        -0.32152559
  28         0.00000000
  29         0.00000000
  30         0.00000000
  31         0.00000000
Sym=     2b1 
Ene=    -0.5500
Spin= Alpha
Occup=    2.00000
   1         0.00000000
   2         0.00000000
   3        -0.27799136
   4         0.00000000
   5         0.00000000
   6         0.00000000
   7         0.00000000
   8         0.22600198
   9         0.00000000
  10         0.00000000
  11         0.00000000
  12         0.00000000
  13         0.22600198
  14         0.00000000
  15         0.00000000
  16         0.00000000
  17         0.00000000
  18         0.49091982
  19         0.00000000
  20         0.00000000
  21         0.00000000
  22         0.00000000
  23         0.49091982
  24         0.00000000
  25         0.00000000
  26        -0.25705581
  27         0.25705581
  28         0.00000000
  29         0.00000000
  30         0.00000000
  31         0.00000000
Sym=     3b1 
Ene=    -0.3387
Spin= Alpha
Occup=    0.00000
   1         0.00000000
   2         0.00000000
   3         0.06341487
   4         0.00000000
   5         0.00000000
   6         0.00000000
   7         0.00000000
   8        -0.63207976
   9         0.00000000
  10         0.00000000
  11         0.00000000
  12         0.00000000
  13        -0.63207976
  14         0.00000000
  15         0.00000000
  16         0.00000000
  17         0.00000000
  18         0.42000939
  19         0.00000000
  20         0.00000000
  21         0.00000000
  22         0.00000000
  23         0.42000939
  24         0.00000000
  25         0.00000000
  26         0.24515973
  27        -0.24515973
  28         0.00000000
  29         0.00000000
  30         0.00000000
  31         0.00000000
Sym=     4b1 
Ene=    -0.1688
Spin= Alpha
Occup=    0.00000
   1         0.00000000
   2         0.00000000
   3        -1.12584145
   4         0.00000000
   5         0.00000000
   6         0.00000000
   7         0.00000000
   8         0.19725020
   9         0.00000000
  10         0.00000000
  11         0.00000000
  12         0.00000000
  13         0.19725020
  14         0.00000000
  15         0.00000000
  16         0.00000000
  17         0.00000000
  18        -0.03533583
  19         0.00000000
  20         0.00000000
  21         0.00000000
  22         0.00000000
  23        -0.03533583
  24         0.00000000
  25         0.00000000
  26         0.82604816
  27        -0.82604816
  28         0.00000000
  29         0.00000000
  30         0.00000000
  31         0.00000000
