   This run of MOLCAS is using the pymolcas driver

                             OPE
                             OPE          NMOL  CASOP  ENMOLC A   SO
                 OPE        NMOLC        AS  OP EN  MO LC     AS  OP
                OPENM       OL CA        SO  PE NM  OL CA     SOP EN
                OP EN      MO   LC       AS  OP ENMOL  CASO   PENMOL
                OP  EN     MO   LC       AS  OP EN     MO     LC ASO
               OP   E  NMOL  C  AS       OP  EN MO     LC     AS  OP
               OP  E   NMO   LC AS        OPEN  MO     LCASOP EN   M
               O  PEN   MO  LCA  SO
            OPE   NMO   L   CAS    OP
        OPENMOL  CASOP     ENMOL   CASOPE
     OPENMOLCA   SOPENMOLCASOPEN   MOLCASOPE
    OPENMOLCAS   OP           EN   MOL    CAS
    OPENMOLCAS       OP  ENM        O     LCA
    OPENMOLCAS    OPEN  MOLCASO     P  E  NMO
    OPENMOLCAS     OP               E  N  MOL
    OPENMOLCA   SO           PENM   O  L  CAS    OPEN    MO    LCAS
    OPENMOLCA   SOP           ENM   O  L  CAS   OP  EN  MOLC  AS   O
    OPENMOLCA   SOPE           NM      O  LCA   S      OP  EN MO
    OPENMOLC                AS         O  PEN   M      OL  CA  SOPE
    OPENMO        LCASOPE  NMOL        C  ASO   P      ENMOLC     AS
    OPE     NMO      LCA  SO     P     E   NM   OL  CA SO  PE N   MO
          OPENMOLCA            SOPE   NMO        LCAS  O    P  ENMO
     OPENMOLCASOPENMOLCASOPENMOLCASOPENMOLCA
        OPENMOLCASOPENMOLCASOPENMOLCASOPE
            OPENMOLCASOPENMOLCASOPENM
               OPENMOLCASOPENMOLCA        version: v25.02 ?
                   OPENMOLCASO
                       OPE                tag:

 OpenMolcas is free software; you can redistribute it and/or modify it
 under the terms of the GNU Lesser General Public License version 2.1.
 OpenMolcas is distributed in the hope that it will be useful, but it
 is provided "as is" and without any express or implied warranties.
 For more details see the full text of the license in the file
 LICENSE or in <http://www.gnu.org/licenses/>.

                 Copyright (C) The OpenMolcas Authors
           For the author list and the recommended citation,
                   consult the file CONTRIBUTORS.md

           *************************************************
           * pymolcas version py2.29                       *
           *   build c0481229b6f3f65ed2c83878be511d3d      *
           *   (after the EMIL interpreter by V. Veryazov) *
           *************************************************

configuration info
------------------
Host name: bcb11747ffd6 (Linux)
C Compiler ID: IntelLLVM
C flags: -std=gnu99 -qopenmp
Fortran Compiler ID: IntelLLVM
Fortran flags: -standard-semantics -fltconsistency -fpp -i8 -heap-arrays -qopenmp
Definitions: _MOLCAS_;_I8_;_LINUX_;_MOLCAS_MPP_;_SCALAPACK_;_GA_
Parallel: ON (GA=ON)


   -----------------------------------------------------------------------
  |
  |           Project: cyclo-opt
  |    Submitted from: /home/charlie/input_examples/molcas/cyclopentadiene
  |      Scratch area: /tmp/cyclo-opt
  |   Save outputs to: /home/charlie/input_examples/molcas/cyclopentadiene
  |            Molcas: /apps/openmolcas
  |
  | Scratch area is empty (for the master process)
  |
  |    MOLCAS_DRIVER = /apps/openmolcas/pymolcas
  |    MOLCAS_NPROCS = 10
  |    MOLCAS_SOURCE = /apps/openmolcas
  | MOLCAS_STRUCTURE = 0
  |
   -----------------------------------------------------------------------

++ ---------   Input file   ---------

&GATEWAY
 Title=1,3,-cyclopentadiene. STO-3G basis set.
   Symmetry= X XY
   Basis set
   C.STO-3G....
   C1    0.000000  0.000000  0.000000  bohr
   C2    0.000000  2.222644  1.774314  bohr
   C3    0.000000  1.384460  4.167793  bohr
   End of basis
   Basis set
   H.STO-3G....
   H1    1.662033  0.000000 -1.245623  bohr
   H2    0.000000  4.167844  1.149778  bohr
   H3    0.000000  2.548637  5.849078  bohr
   End of basis

>>> DO WHILE

  &SEWARD

  >>> IF (ITER == 1)

    &SCF
        TITLE= cyclopentadiene molecule
        OCCUPIED=9 1 6 2
        ITERATIONS=40

  >>> END IF

  &RASSCF
     TITLE=cyclopentadiene molecule 1A1
     SYMMETRY=1
   SPIN=1
     NACTEL= 6    0    0
     INACTIVE= 9    0    6    0
     RAS2= 0    2    0    3            <--- All pi valence orbitals active
     ITER= 50,25
   CIMX= 25

  &ALASKA

  &SLAPAF
   Iterations=80
   Thrs=0.5D-06 1.0D-03

>>> END DO

-- ----------------------------------

--- Start Module: gateway at Fri Dec  5 00:56:18 2025 ---
 
()()()()()()()()()()()()()()()()()()()()()()()()()()()()()()()()()()()()()()()()()()()()()()()()()()

                                              &GATEWAY

             launched 10 MPI processes, running in PARALLEL mode (work-sharing enabled)
                       available to each process: 2.0 GB of memory, 1 thread
                                        master pid: 3068763
()()()()()()()()()()()()()()()()()()()()()()()()()()()()()()()()()()()()()()()()()()()()()()()()()()
 
 
 Title:
                            1,3,-cyclopentadiene. STO-3G basis set.                     
 
 
++    Symmetry information:
      ---------------------
 
                    --- Group Generators ---
                    Reflection in the yz-plane  
                    Rotation around the z-axis  
 
                    Character Table for C2v
 
                             E   s(yz) C2(z) s(xz)
                    a1       1     1     1     1  z
                    a2       1    -1     1    -1  xy, Rz, I
                    b2       1     1    -1    -1  y, yz, Rx
                    b1       1    -1    -1     1  x, xz, Ry
--
 
 
++    Basis set information:
      ----------------------
 
 
      Basis set label: C.STO-3G.........
 
      Electronic valence basis set:
      ------------------
      Associated Effective Charge   6.000000 au
      Associated Actual Charge      6.000000 au
      Nuclear Model: Point charge
 
      Shell  nPrim  nBasis  Cartesian Spherical Contaminant
         s       6       2        X                  
         p       3       1        X                  
 
 
      Basis set label: H.STO-3G.........
 
      Electronic valence basis set:
      ------------------
      Associated Effective Charge   1.000000 au
      Associated Actual Charge      1.000000 au
      Nuclear Model: Point charge
 
      Shell  nPrim  nBasis  Cartesian Spherical Contaminant
         s       3       1        X                  
--
 
 
++    Molecular structure info:
      -------------------------
 
                    ************************************************ 
                    **** Cartesian Coordinates / bohr, angstrom **** 
                    ************************************************ 
 
     Center  Label                x              y              z                     x              y              z
        1      C1               0.000000       0.000000       0.000000              0.000000       0.000000       0.000000
        2      C2               0.000000       2.222644       1.774314              0.000000       1.176173       0.938927
        3      C2               0.000000      -2.222644       1.774314              0.000000      -1.176173       0.938927
        4      C3               0.000000       1.384460       4.167793              0.000000       0.732625       2.205501
        5      C3               0.000000      -1.384460       4.167793              0.000000      -0.732625       2.205501
        6      H1               1.662033       0.000000      -1.245623              0.879510       0.000000      -0.659155
        7      H1              -1.662033       0.000000      -1.245623             -0.879510       0.000000      -0.659155
        8      H2               0.000000       4.167844       1.149778              0.000000       2.205528       0.608436
        9      H2               0.000000      -4.167844       1.149778              0.000000      -2.205528       0.608436
       10      H3               0.000000       2.548637       5.849078              0.000000       1.348681       3.095199
       11      H3               0.000000      -2.548637       5.849078              0.000000      -1.348681       3.095199
 
                    *************************************** 
                    *    InterNuclear Distances / bohr    * 
                    *************************************** 
 
               1 C1            2 C2            3 C2            4 C3            5 C3            6 H1    
    1 C1       0.000000
    2 C2       2.844000        0.000000
    3 C2       2.844000        4.445288        0.000000
    4 C3       4.391723        2.536000        4.328965        0.000000
    5 C3       4.391723        4.328965        2.536000        2.768920        0.000000
    6 H1       2.077000        4.101526        4.101526        5.829593        5.829593        0.000000
    7 H1       2.077000        4.101526        4.101526        5.829593        5.829593        3.324066
    8 H2       4.323530        2.043000        6.420933        4.105562        6.319533        5.086376
    9 H2       4.323530        6.420933        2.043000        6.319533        4.105562        5.086376
   10 H3       6.380224        4.087783        6.274458        2.045001        4.277379        7.719630
   11 H3       6.380224        6.274458        4.087783        4.277379        2.045001        7.719630
 
               7 H1            8 H2            9 H2           10 H3           11 H3    
    7 H1       0.000000
    8 H2       5.086376        0.000000
    9 H2       5.086376        8.335688        0.000000
   10 H3       7.719630        4.970438        8.197227        0.000000
   11 H3       7.719630        8.197227        4.970438        5.097274        0.000000
 
                    ******************************************* 
                    *    InterNuclear Distances / angstrom    * 
                    ******************************************* 
 
               1 C1            2 C2            3 C2            4 C3            5 C3            6 H1    
    1 C1       0.000000
    2 C2       1.504980        0.000000
    3 C2       1.504980        2.352345        0.000000
    4 C3       2.324000        1.341993        2.290790        0.000000
    5 C3       2.324000        2.290790        1.341993        1.465249        0.000000
    6 H1       1.099101        2.170434        2.170434        3.084888        3.084888        0.000000
    7 H1       1.099101        2.170434        2.170434        3.084888        3.084888        1.759020
    8 H2       2.287914        1.081109        3.397811        2.172570        3.344153        2.691594
    9 H2       2.287914        3.397811        1.081109        3.344153        2.172570        2.691594
   10 H3       3.376269        2.163162        3.320300        1.082168        2.263491        4.085052
   11 H3       3.376269        3.320300        2.163162        2.263491        1.082168        4.085052
 
               7 H1            8 H2            9 H2           10 H3           11 H3    
    7 H1       0.000000
    8 H2       2.691594        0.000000
    9 H2       2.691594        4.411056        0.000000
   10 H3       4.085052        2.630242        4.337786        0.000000
   11 H3       4.085052        4.337786        2.630242        2.697361        0.000000
 
                    ************************************** 
                    *    Valence Bond Angles / degree    * 
                    ************************************** 
                          Atom centers                 Phi
                      2 C2       1 C1       3 C2       102.80
                      2 C2       1 C1       6 H1       111.97
                      2 C2       1 C1       7 H1       111.97
                      3 C2       1 C1       6 H1       111.97
                      3 C2       1 C1       7 H1       111.97
                      6 H1       1 C1       7 H1       106.30
                      1 C1       2 C2       4 C3       109.30
                      1 C1       2 C2       8 H2       123.60
                      4 C3       2 C2       8 H2       127.10
                      1 C1       3 C2       5 C3       109.30
                      1 C1       3 C2       9 H2       123.60
                      5 C3       3 C2       9 H2       127.10
                      2 C2       4 C3       5 C3       109.30
                      2 C2       4 C3      10 H3       126.00
                      5 C3       4 C3      10 H3       124.70
                      3 C2       5 C3       4 C3       109.30
                      3 C2       5 C3      11 H3       126.00
                      4 C3       5 C3      11 H3       124.70
 
           ***************************************************************
           *              Valence Dihedral Angles / degree               *
           ***************************************************************
                    Atom centers                       Phi1     Phi2     Theta 
           3 C2       1 C1       2 C2       4 C3        102.80   109.30    -0.00
           3 C2       1 C1       2 C2       8 H2        102.80   123.60  -180.00
           6 H1       1 C1       2 C2       8 H2        111.97   123.60    59.64
           7 H1       1 C1       2 C2       8 H2        111.97   123.60   -59.64
           2 C2       1 C1       3 C2       5 C3        102.80   109.30    -0.00
           2 C2       1 C1       3 C2       9 H2        102.80   123.60  -180.00
           6 H1       1 C1       3 C2       9 H2        111.97   123.60   -59.64
           7 H1       1 C1       3 C2       9 H2        111.97   123.60    59.64
           4 C3       2 C2       1 C1       6 H1        109.30   111.97  -120.36
           4 C3       2 C2       1 C1       7 H1        109.30   111.97   120.36
           1 C1       2 C2       4 C3       5 C3        109.30   109.30    -0.00
           1 C1       2 C2       4 C3      10 H3        109.30   126.00  -180.00
           8 H2       2 C2       4 C3      10 H3        127.10   126.00    -0.00
           5 C3       3 C2       1 C1       6 H1        109.30   111.97   120.36
           5 C3       3 C2       1 C1       7 H1        109.30   111.97  -120.36
           1 C1       3 C2       5 C3       4 C3        109.30   109.30    -0.00
           1 C1       3 C2       5 C3      11 H3        109.30   126.00  -180.00
           9 H2       3 C2       5 C3      11 H3        127.10   126.00    -0.00
           5 C3       4 C3       2 C2       8 H2        109.30   127.10  -180.00
           2 C2       4 C3       5 C3       3 C2        109.30   109.30    -0.00
           2 C2       4 C3       5 C3      11 H3        109.30   124.70  -180.00
          10 H3       4 C3       5 C3      11 H3        124.70   124.70    -0.00
           4 C3       5 C3       3 C2       9 H2        109.30   127.10  -180.00
           3 C2       5 C3       4 C3      10 H3        109.30   124.70  -180.00
--
 
 
            Nuclear Potential Energy            156.89024796 au
 
--- Stop Module: gateway at Fri Dec  5 00:56:20 2025 /rc=_RC_ALL_IS_WELL_ ---
*** files: xmldump
    saved to directory /home/charlie/input_examples/molcas/cyclopentadiene
--- Module gateway spent 1 second ---

--- Start Module: seward at Fri Dec  5 00:56:23 2025 ---
 
()()()()()()()()()()()()()()()()()()()()()()()()()()()()()()()()()()()()()()()()()()()()()()()()()()

                                              &SEWARD

             launched 10 MPI processes, running in PARALLEL mode (work-sharing enabled)
                       available to each process: 2.0 GB of memory, 1 thread
                                        master pid: 3068895
()()()()()()()()()()()()()()()()()()()()()()()()()()()()()()()()()()()()()()()()()()()()()()()()()()
 
               SEWARD will generate:
                  Multipole Moment integrals up to order  2
                  Kinetic Energy integrals
                  Nuclear Attraction integrals (point charge)
                  One-Electron Hamiltonian integrals
                  Velocity integrals
                  Orbital angular momentum around ( 0.0000  0.0000  2.3348 )
                  Velocity quadrupole around ( 0.0000  0.0000  2.3348 )
                  Two-Electron Repulsion integrals
 
 Title:
                            1,3,-cyclopentadiene. STO-3G basis set.                     
 
 
                   Integrals are discarded if absolute value <: 1.00E-14
                   Integral cutoff threshold is set to       <: 1.00E-16
 
                    Unitary symmetry adaptation
 
 
            Nuclear Potential Energy            156.89024796 au
 
 
      Basis set specifications :
      Symmetry species         a1   a2   b2   b1 
      Basis functions           14    2   11    4
 
 
      Input file to MOLDEN was generated!
 
--- Stop Module: seward at Fri Dec  5 00:56:25 2025 /rc=_RC_ALL_IS_WELL_ ---
*** files: cyclo-opt.GssOrb cyclo-opt.guessorb.molden xmldump
    saved to directory /home/charlie/input_examples/molcas/cyclopentadiene
--- Module seward spent 1 second ---

>>> IF (ITER == 1)

*** symbolic link created: INPORB -> cyclo-opt.GssOrb
--- Start Module: scf at Fri Dec  5 00:56:28 2025 ---
 
()()()()()()()()()()()()()()()()()()()()()()()()()()()()()()()()()()()()()()()()()()()()()()()()()()

                                                &SCF

             launched 10 MPI processes, running in PARALLEL mode (work-sharing enabled)
                       available to each process: 2.0 GB of memory, 1 thread
                                        master pid: 3069023
()()()()()()()()()()()()()()()()()()()()()()()()()()()()()()()()()()()()()()()()()()()()()()()()()()
 
++    Input section:
      --------------
 
      Header of the integral files:
      
       Integrals generated by Gateway/Seward, Fri Dec  5 00:56:24 2025
 
       Title:
        cyclopentadiene molecule
 
      Cartesian coordinates in angstrom:
      -----------------------------------------------------
      No.  Label        X            Y            Z        
      -----------------------------------------------------
       1   C1         0.00000000   0.00000000   0.00000000
       2   C2         0.00000000   1.17617255   0.93892653
       3   C3         0.00000000   0.73262468   2.20550107
       4   H1         0.87950999   0.00000000  -0.65915530
       5   H2         0.00000000   2.20552806   0.60843631
       6   H3         0.00000000   1.34868062   3.09519878
       7   C2         0.00000000  -1.17617255   0.93892653
       8   C3         0.00000000  -0.73262468   2.20550107
       9   H1        -0.87950999   0.00000000  -0.65915530
      10   H2         0.00000000  -2.20552806   0.60843631
      11   H3         0.00000000  -1.34868062   3.09519878
      -----------------------------------------------------
      Nuclear repulsion energy =  156.89024796
--
 
++    Orbital specifications:
      -----------------------
 
      Symmetry species               1   2   3   4
                                    a1  a2  b2  b1
      Frozen orbitals                0   0   0   0
      Occupied orbitals              9   1   6   2
      Secondary orbitals             5   1   5   2
      Deleted orbitals               0   0   0   0
      Total number of orbitals      14   2  11   4
      Number of basis functions     14   2  11   4
--
 
      Molecular charge                           0.000
 
++    Optimization specifications:
      ----------------------------
 
      SCF Algorithm: Conventional
      Minimized density differences are used
      Number of density matrices in core                 5
      Maximum number of NDDO SCF iterations             40
      Maximum number of HF SCF iterations               40
      Threshold for SCF energy change             1.00E-09
      Threshold for density matrix                1.00E-04
      Threshold for Fock matrix                   1.50E-04
      Threshold for linear dependence             1.00E-09
      Threshold at which DIIS is turned on        1.50E-01
      Maximum depth in the DIIS procedure                5
      Maximum depth in the BFGS Hessian update          30
      Threshold at which QNR/C2DIIS is turned on  7.50E-02
      Threshold for Norm(delta) (QNR/C2DIIS)      1.00E-03
      All orbitals punched on: SCFORB
--
 
      Detected guessorb starting orbitals                                             
 
 
++ Convergence information
                                   SCF        iterations: Energy and convergence statistics
 
Iter     Tot. SCF        One-elec.       Two-elec.     Energy      Max Dij or  Max Fij      DNorm      TNorm      AccCon     Time
         Energy          Energy          Energy        Change      Delta Norm                                                in Sec.
   1  -190.412907314  -567.913220903   220.610065632   0.00E+00    9.69E-02*   1.19E-01*    7.73E+00   7.35E+01   None         0.
   2  -190.452665813  -568.608433614   221.265519843  -3.98E-02*   2.92E-02*   9.63E-03*    4.74E-01   7.36E+01   EDIIS        0.
   3  -190.454523504  -568.534607750   221.189836288  -1.86E-03*   1.99E-02*   6.85E-03*    1.18E-01   7.36E+01   c2DIIS       0.
   4  -190.454741320  -568.552142053   221.207152775  -2.18E-04*   5.41E-03*   2.89E-03*    3.48E-02   7.36E+01   QNRc2DIIS    0.
   5  -190.454775828  -568.546232626   221.201208840  -3.45E-05*   2.14E-03*   1.62E-03*    1.26E-02   7.36E+01   QNRc2DIIS    0.
   6  -190.454787693  -568.546619437   221.201583786  -1.19E-05*   9.43E-04    3.49E-04*    2.24E-03   7.36E+01   QNRc2DIIS    0.
   7  -190.454788467  -568.547513152   221.202476726  -7.74E-07*   6.53E-05    3.06E-05     2.85E-04   7.36E+01   QNRc2DIIS    0.
   8  -190.454788477  -568.547233115   221.202196679  -9.89E-09*   1.90E-05    7.28E-06     3.70E-05   7.36E+01   QNRc2DIIS    0.
   9  -190.454788478  -568.547244709   221.202208273  -5.84E-10    3.37E-06    4.83E-07     3.97E-05   7.36E+01   QNRc2DIIS    0.
 
       Convergence after   9 Macro Iterations
--
 
 *****************************************************************************************************************************
 *                                                                                                                           *
 *                                             SCF/KS-DFT Program, Final results                                             *
 *                                                                                                                           *
 *                                                                                                                           *
 *                                                                                                                           *
 *                                                       Final Results                                                       *
 *                                                                                                                           *
 *****************************************************************************************************************************
 
::    Total SCF energy                               -190.4547884779
      One-electron energy                            -568.5472447090
      Two-electron energy                             221.2022082730
      Nuclear repulsion energy                        156.8902479580
      Kinetic energy (interpolated)                   189.0167785377
      Virial theorem                                    1.0076078428
      Total spin, S(S+1)                                0.0000000000
      Total spin, S                                     0.0000000000
      Max non-diagonal density matrix element           0.0000048831
      Max non-diagonal Fock matrix element              0.0000015516
 
 
      All orbitals with orbital energies smaller than  E(LUMO)+0.5 are printed
 
++    Molecular orbitals:
      -------------------
 
      Title: SCF orbitals

      Molecular orbitals for symmetry species 1: a1 
 
          Orbital            1         2         3         4         5         6         7         8         9        10    
          Energy          -11.0482  -11.0140  -11.0107   -1.0928   -0.9021   -0.7041   -0.6491   -0.4695   -0.4528    0.6146
          Occ. No.          2.0000    2.0000    2.0000    2.0000    2.0000    2.0000    2.0000    2.0000    2.0000    0.0000
 
        1 C1     1s         0.9919    0.0025    0.0045   -0.1110    0.1697   -0.0838   -0.0038    0.0031   -0.0378    0.0219
        2 C1     2s         0.0379   -0.0006   -0.0081    0.2893   -0.4932    0.2645    0.0179   -0.0174    0.1460   -0.1618
        3 C1     2pz        0.0004   -0.0007   -0.0038    0.0654    0.0308   -0.1672   -0.2113   -0.3399    0.3666    0.4028
        4 C2     1s        -0.0034    0.1004    0.9872   -0.1586    0.0295    0.1441   -0.0242    0.0153   -0.0180    0.1278
        5 C2     2s        -0.0087   -0.0039    0.0367    0.3915   -0.0849   -0.4397    0.0925   -0.0813    0.0759   -0.8048
        6 C2     2py        0.0048    0.0014   -0.0013   -0.1041    0.0500   -0.1690    0.3669   -0.0237   -0.2957   -0.3767
        7 C2     2pz        0.0039   -0.0042    0.0018    0.0502    0.2060   -0.0562   -0.0866    0.4796   -0.0619    0.3060
        8 C3     1s        -0.0019    0.9876   -0.0998   -0.1611   -0.1630   -0.0758   -0.0190   -0.0172    0.0424    0.0667
        9 C3     2s         0.0002    0.0290   -0.0106    0.3988    0.4540    0.2435    0.0811    0.0403   -0.1636   -0.4502
       10 C3     2py        0.0001    0.0038   -0.0020   -0.0557   -0.0785   -0.1946    0.2388    0.4138    0.5192   -0.2412
       11 C3     2pz       -0.0000   -0.0016    0.0047   -0.1046    0.0306    0.2725    0.2959   -0.3280    0.1749   -0.4037
       12 H1     1s        -0.0098   -0.0001   -0.0002    0.0752   -0.2162    0.2297    0.1402    0.2747   -0.2158    0.4464
       13 H2     1s         0.0002   -0.0006   -0.0068    0.0690   -0.0349   -0.2797    0.2987   -0.2222   -0.2372    0.9050
       14 H3     1s        -0.0001   -0.0066    0.0007    0.0689    0.1412    0.1732    0.2934   -0.0105    0.3698    0.7073
 
          Orbital           11        12    
          Energy            0.6608    0.7319
          Occ. No.          0.0000    0.0000
 
        1 C1     1s        -0.0965    0.1959
        2 C1     2s         0.5538   -1.2256
        3 C1     2pz        0.7033    0.5154
        4 C2     1s         0.0971   -0.1245
        5 C2     2s        -0.5530    0.7948
        6 C2     2py        0.2385    0.0687
        7 C2     2pz        0.6018   -0.0273
        8 C3     1s        -0.0605    0.0448
        9 C3     2s         0.3779   -0.2825
       10 C3     2py        0.2504   -0.1280
       11 C3     2pz        0.5858    0.2786
       12 H1     1s         0.1902    1.1150
       13 H2     1s         0.2867   -0.4797
       14 H3     1s        -0.8208    0.0022

      Molecular orbitals for symmetry species 2: a2 
 
          Orbital            1         2    
          Energy           -0.2492    0.4131
          Occ. No.          2.0000    0.0000
 
        1 C2     2px        0.7649   -0.7085
        2 C3     2px        0.5640    0.9912

      Molecular orbitals for symmetry species 3: b2 
 
          Orbital            1         2         3         4         5         6         7         8         9    
          Energy          -11.0142  -11.0108   -0.9074   -0.6759   -0.5045   -0.4469    0.6201    0.6933    0.7498
          Occ. No.          2.0000    2.0000    2.0000    2.0000    2.0000    2.0000    0.0000    0.0000    0.0000
 
        1 C1     2py       -0.0005   -0.0047    0.1261   -0.2219   -0.0503   -0.5001    0.8172    0.3977    0.3953
        2 C2     1s         0.1294    0.9837   -0.2057    0.0987    0.0461    0.0082    0.0721    0.1567    0.1187
        3 C2     2s        -0.0033    0.0366    0.5702   -0.3187   -0.1446   -0.0507   -0.4144   -0.9688   -0.7997
        4 C2     2py        0.0011   -0.0016    0.0021   -0.0849    0.3908    0.4294    0.7155   -0.1176   -0.4866
        5 C2     2pz       -0.0042    0.0022    0.1019    0.2950   -0.3119    0.3572    0.2976    0.0332    0.4568
        6 C3     1s         0.9833   -0.1289   -0.1443   -0.1415    0.0201    0.0190    0.0557   -0.2257    0.1070
        7 C3     2s         0.0414   -0.0134    0.3960    0.4349   -0.0523   -0.0765   -0.3171    1.3926   -0.7175
        8 C3     2py       -0.0049   -0.0011    0.1479    0.1865    0.0549    0.0084    0.7749   -0.2378   -0.0181
        9 C3     2pz       -0.0016    0.0043   -0.1295    0.1275    0.4689   -0.2282   -0.0495    0.2211   -0.5489
       10 H2     1s        -0.0006   -0.0066    0.1758   -0.2535    0.3557    0.2993   -0.3865    0.6318    0.9008
       11 H3     1s        -0.0066    0.0012    0.1211    0.3324    0.3578   -0.2463   -0.2384   -0.7908    0.7467

      Molecular orbitals for symmetry species 4: b1 
 
          Orbital            1         2         3         4    
          Energy           -0.5566   -0.3625    0.2554    0.7288
          Occ. No.          2.0000    2.0000    0.0000    0.0000
 
        1 C1     2px        0.5236   -0.2149   -0.0600   -1.1219
        2 C2     2px        0.2562    0.4250   -0.8568    0.3444
        3 C3     2px        0.1828    0.6738    0.6316   -0.0927
        4 H1     1s         0.5062   -0.3305    0.3812    1.1459
--
 
 
++    Molecular charges:
      ------------------
 
      Mulliken charges per centre and basis function type
      ---------------------------------------------------
 
                C1      C2      C3      H1      H2      H3    
      1s       1.9920  1.9929  1.9929  0.9272  0.9401  0.9399
      2s       1.1751  1.1484  1.1449  0.0000  0.0000  0.0000
      2px      1.0104  1.0083  1.0111  0.0000  0.0000  0.0000
      2pz      0.9858  0.9539  0.9770  0.0000  0.0000  0.0000
      2py      0.9562  0.9575  0.9462  0.0000  0.0000  0.0000
      Total    6.1195  6.0610  6.0721  0.9272  0.9401  0.9399
 
      N-E     -0.1195 -0.0610 -0.0721  0.0728  0.0599  0.0601
 
      Total electronic charge=   36.000000
 
      Total            charge=   -0.000000
--
 
 
++    Molecular properties:
      ---------------------
 
      Charge (e):
                      =   -0.0000
      Dipole Moment (debye):
      Origin of the operator (angstrom)=    0.0000    0.0000    0.0000
                   X=  0.0000E+00               Y=  0.0000E+00               Z= -3.8768E-01           Total=  3.8768E-01
      Quadrupole Moment (debye*angstrom):
      Origin of the operator (angstrom)=    0.0000    0.0000    1.2355
                  XX= -2.9420E+01              XY=  0.0000E+00              XZ=  0.0000E+00              YY= -2.7469E+01
                  YZ=  0.0000E+00              ZZ= -2.6655E+01
      In traceless form (debye*angstrom)
                  XX= -2.3588E+00              XY=  0.0000E+00              XZ=  0.0000E+00              YY=  5.6902E-01
                  YZ=  0.0000E+00              ZZ=  1.7898E+00
--
 
 
      Input file to MOLDEN was generated!
 
 ###############################################################################
 ###############################################################################
 ###                                                                         ###
 ###                                                                         ###
 ###    WARNING: RunFile label nBas                                          ###
 ###    was used       59 times                                              ###
 ###                                                                         ###
 ###                                                                         ###
 ###############################################################################
 ###############################################################################
--- Stop Module: scf at Fri Dec  5 00:56:30 2025 /rc=_RC_ALL_IS_WELL_ ---
*** files: cyclo-opt.scf.molden cyclo-opt.ScfOrb xmldump
    saved to directory /home/charlie/input_examples/molcas/cyclopentadiene
--- Module scf spent 2 seconds ---

*** symbolic link created: INPORB -> cyclo-opt.ScfOrb
--- Start Module: rasscf at Fri Dec  5 00:56:33 2025 ---
 
()()()()()()()()()()()()()()()()()()()()()()()()()()()()()()()()()()()()()()()()()()()()()()()()()()

                                              &RASSCF

             launched 10 MPI processes, running in PARALLEL mode (work-sharing enabled)
                       available to each process: 2.0 GB of memory, 1 thread
                                        master pid: 3069151
()()()()()()()()()()()()()()()()()()()()()()()()()()()()()()()()()()()()()()()()()()()()()()()()()()
 
 
      Header of the ONEINT file:
      --------------------------
      
      Integrals generated by Gateway/Seward, Fri Dec  5 00:56:24 2025
 
 
      OrdInt status: non-squared
 
 
      Cartesian coordinates in angstrom:
      -----------------------------------------------------
      No.  Label        X            Y            Z        
      -----------------------------------------------------
       1   C1         0.00000000   0.00000000   0.00000000
       2   C2         0.00000000   1.17617255   0.93892653
       3   C3         0.00000000   0.73262468   2.20550107
       4   H1         0.87950999   0.00000000  -0.65915530
       5   H2         0.00000000   2.20552806   0.60843631
       6   H3         0.00000000   1.34868062   3.09519878
       7   C2         0.00000000  -1.17617255   0.93892653
       8   C3         0.00000000  -0.73262468   2.20550107
       9   H1        -0.87950999   0.00000000  -0.65915530
      10   H2         0.00000000  -2.20552806   0.60843631
      11   H3         0.00000000  -1.34868062   3.09519878
      -----------------------------------------------------
      Nuclear repulsion energy =  156.89024796
 
++    Wave function specifications:
      -----------------------------
 
      Number of closed shell electrons          30
      Number of electrons in active shells       6
      Max number of holes in RAS1 space          0
      Max nr of electrons in RAS3 space          0
      Number of inactive orbitals               15
      Number of active orbitals                  5
      Number of secondary orbitals              11
      Spin quantum number                      0.0
      State symmetry                             1
--
 
++    Orbital specifications:
      -----------------------
 
      Symmetry species                           1   2   3   4
                                                a1  a2  b2  b1
      Frozen orbitals                            0   0   0   0
      Inactive orbitals                          9   0   6   0
      Active orbitals                            0   2   0   3
      RAS1 orbitals                              0   0   0   0
      RAS2 orbitals                              0   2   0   3
      RAS3 orbitals                              0   0   0   0
      Secondary orbitals                         5   0   5   1
      Deleted orbitals                           0   0   0   0
      Number of basis functions                 14   2  11   4
--
 
++    CI expansion specifications:
      ----------------------------
 
      Number of CSFs                            28
      Number of determinants                    31
      Number of root(s) required                 1
      Root chosen for geometry opt.              1
      CI root used                               1
         
      highest root included in the CI            1
      max. size of the explicit Hamiltonian     28
--
 
++    Optimization specifications:
      ----------------------------
 
      RASSCF algorithm: Conventional
      Maximum number of macro iterations        50
      Maximum number of SX iterations           25
      Threshold for RASSCF energy            1.000E-08
      Threshold for max MO rotation          1.000E-01
      Threshold for max BLB element          1.000E-04
      Level shift parameter                  5.000E-01
      Make Quasi-Newton update
--
 
      Orbitals from runfile: scf orbitals
      The MO-coefficients are taken from scf orbitals on runfile
 
      Total molecular charge    0.00
 
      ************************************************************************************************************************
      *                                                                                                                      *
      *                                            Wave function control section                                             *
      *                                                                                                                      *
      ************************************************************************************************************************
 
 
                                         RASSCF iterations: Energy and convergence statistics
                                         ----------------------------------------------------
 
      Iter CI   SX   CI       RASSCF       Energy    max ROT     max BLB   max BLB  Level Ln srch  Step   QN   Walltime
          iter iter root      energy       change     param      element    value   shift minimum  type update hh:mm:ss
 Nr of preliminary CI iterations:   1
        1   1    5    1  -190.53449227    0.00E+00  -1.00E-01*   3   4 4  2.18E-02*  0.00   0.00    SX    NO    0:00:00
        2   1    5    1  -190.53733152   -2.84E-03* -2.64E-02    3   4 4  6.01E-03*  0.00   0.00    SX    NO    0:00:00
        3   1    4    1  -190.53754382   -2.12E-04* -7.45E-03    3   4 4  1.69E-03*  0.00   0.00    SX    NO    0:00:00
        4   1    4    1  -190.53756133   -1.75E-05* -2.12E-03    3   4 4  4.83E-04*  0.00   0.00    SX    NO    0:00:00
        5   1    4    1  -190.53756279   -1.46E-06* -8.81E-04    3   4 4  1.39E-04*  0.00   1.39    QN   YES    0:00:00
        6   1    3    1  -190.53756294   -1.46E-07*  1.97E-05    1   4 4  1.89E-05   0.00   0.97    QN   YES    0:00:00
        7   1    2    1  -190.53756294   -4.20E-11   3.70E-06    5  11 3 -1.82E-05   0.00   0.46    QN   YES    0:00:00
      Convergence after  7 iterations
        8   1    2    1  -190.53756294   -3.35E-10   3.70E-06    5  11 3 -7.32E-06   0.00   0.46    QN   YES    0:00:00
 
      ************************************************************************************************************************
                                                      Wave function printout:
                       occupation of active orbitals, and spin coupling of open shells (u,d: Spin up or down)
      ************************************************************************************************************************
 
      Note: transformation to natural orbitals
      has been made, which may change the order of the CSFs.
 
      printout of CI-coefficients larger than  0.05 for root  1
      energy=    -190.537563
      conf/sym  22444     Coeff  Weight
             1  22 200   0.09337 0.00872
             7  20 220  -0.93842 0.88063
            10  20 202   0.08861 0.00785
            14  ud 2ud   0.15698 0.02464
            19  02 220   0.09268 0.00859
            22  02 202  -0.05441 0.00296
            25  uu 2dd  -0.16256 0.02643
            28  00 222   0.19883 0.03953
 
      Natural orbitals and occupation numbers for root  1
      sym 2:   1.845974   0.092406
      sym 4:   1.999674   1.909305   0.152642
 
      ************************************************************************************************************************
      *                                                                                                                      *
      *                                                    Final results                                                     *
      *                                                                                                                      *
      ************************************************************************************************************************
 
 
++    Final optimization conditions:
      ------------------------------
 
      Average CI energy                            -190.53756294
      RASSCF energy for state  1                   -190.53756294
      Super-CI energy                                -0.00000000
      RASSCF energy change                           -0.00000000
      Max change in MO coefficients              -4.565E-06
      Max non-diagonal density matrix element     3.700E-06
      Maximum BLB matrix element                 -7.316E-06
      (orbital pair   5,  11 in symmetry   3)
      Norm of electronic gradient            2.143E-05
--
 
 
      Final state energy(ies):
      ------------------------
 
::    RASSCF root number  1 Total energy:   -190.53756294
 
++    Molecular orbitals:
      -------------------
 
      Pseudonatural active orbitals and approximate occupation numbers
 
 
 
 
      Molecular orbitals for symmetry species 1: a1 
 
 
      Orbital                 1         2         3         4         5         6         7         8         9
      Energy           -11.0465  -11.0120  -11.0082   -1.0925   -0.9009   -0.7038   -0.6492   -0.4692   -0.4528
      Occ. No.           2.0000    2.0000    2.0000    2.0000    2.0000    2.0000    2.0000    2.0000    2.0000
 
     1 C1     1s         0.9919    0.0024    0.0046   -0.1103    0.1698   -0.0845   -0.0048    0.0015   -0.0374
     2 C1     2s         0.0379   -0.0004   -0.0081    0.2875   -0.4931    0.2665    0.0212   -0.0117    0.1449
     3 C1     2pz        0.0004   -0.0006   -0.0038    0.0662    0.0285   -0.1648   -0.2103   -0.3311    0.3756
     4 C2     1s        -0.0035    0.0803    0.9890   -0.1585    0.0306    0.1440   -0.0241    0.0154   -0.0184
     5 C2     2s        -0.0087   -0.0047    0.0367    0.3911   -0.0882   -0.4398    0.0920   -0.0813    0.0784
     6 C2     2py        0.0048    0.0014   -0.0013   -0.1049    0.0508   -0.1703    0.3655   -0.0315   -0.2963
     7 C2     2pz        0.0039   -0.0043    0.0018    0.0515    0.2059   -0.0591   -0.0869    0.4769   -0.0733
     8 C3     1s        -0.0018    0.9894   -0.0796   -0.1614   -0.1629   -0.0754   -0.0193   -0.0162    0.0428
     9 C3     2s         0.0002    0.0293   -0.0101    0.3993    0.4545    0.2428    0.0819    0.0366   -0.1646
    10 C3     2py        0.0001    0.0039   -0.0020   -0.0561   -0.0785   -0.1961    0.2395    0.4267    0.5079
    11 C3     2pz       -0.0000   -0.0017    0.0047   -0.1060    0.0307    0.2716    0.2973   -0.3226    0.1828
    12 H1     1s        -0.0098   -0.0001   -0.0002    0.0742   -0.2150    0.2291    0.1408    0.2701   -0.2234
    13 H2     1s         0.0002   -0.0005   -0.0068    0.0688   -0.0356   -0.2798    0.2972   -0.2293   -0.2322
    14 H3     1s        -0.0001   -0.0066    0.0006    0.0690    0.1417    0.1721    0.2947   -0.0011    0.3689
 
 
 
      Molecular orbitals for symmetry species 2: a2 
 
 
      Orbital                 1         2
      Energy            -0.2276    0.3956
      Occ. No.           1.8460    0.0924
 
     1 C2     2px        0.7555   -0.7185
     2 C3     2px        0.5770    0.9837
 
 
 
      Molecular orbitals for symmetry species 3: b2 
 
 
      Orbital                 1         2         3         4         5         6
      Energy           -11.0122  -11.0083   -0.9069   -0.6756   -0.5048   -0.4462
      Occ. No.           2.0000    2.0000    2.0000    2.0000    2.0000    2.0000
 
     1 C1     2py       -0.0003   -0.0047    0.1251   -0.2210   -0.0486   -0.4996
     2 C2     1s         0.1052    0.9866   -0.2055    0.0995    0.0457    0.0089
     3 C2     2s        -0.0043    0.0365    0.5691   -0.3215   -0.1432   -0.0531
     4 C2     2py        0.0011   -0.0016    0.0015   -0.0849    0.3902    0.4310
     5 C2     2pz       -0.0043    0.0022    0.1040    0.2933   -0.3124    0.3574
     6 C3     1s         0.9862   -0.1047   -0.1446   -0.1413    0.0199    0.0190
     7 C3     2s         0.0418   -0.0125    0.3967    0.4350   -0.0520   -0.0763
     8 C3     2py       -0.0049   -0.0012    0.1485    0.1865    0.0554    0.0089
     9 C3     2pz       -0.0017    0.0043   -0.1305    0.1276    0.4693   -0.2268
    10 H2     1s        -0.0004   -0.0066    0.1753   -0.2544    0.3552    0.2991
    11 H3     1s        -0.0067    0.0010    0.1215    0.3326    0.3583   -0.2453
 
 
 
      Molecular orbitals for symmetry species 4: b1 
 
 
      Orbital                 1         2         3
      Energy            -0.5335   -0.3678    0.2426
      Occ. No.           1.9997    1.9093    0.1526
 
     1 C1     2px        0.5659   -0.0331    0.0871
     2 C2     2px        0.0908    0.5006   -0.8891
     3 C3     2px       -0.0438    0.6861    0.6498
     4 H1     1s         0.5899   -0.1446    0.2119
--
 
      Von Neumann Entropy (Root   1) =  0.65910
 

      Mulliken population analysis for root number:  1
      -----------------------------------------------
 
 
++    Molecular charges:
      ------------------
 
      Mulliken charges per centre and basis function type
      ---------------------------------------------------
 
                C1      C2      C3      H1      H2      H3    
      1s       1.9920  1.9929  1.9929  0.9325  0.9401  0.9400
      2s       1.1746  1.1488  1.1453  0.0000  0.0000  0.0000
      2px      1.0115  1.0062  1.0075  0.0000  0.0000  0.0000
      2pz      0.9850  0.9531  0.9768  0.0000  0.0000  0.0000
      2py      0.9538  0.9588  0.9466  0.0000  0.0000  0.0000
      Total    6.1169  6.0598  6.0691  0.9325  0.9401  0.9400
 
      N-E     -0.1169 -0.0598 -0.0691  0.0675  0.0599  0.0600
 
      Total electronic charge=   36.000000
 
      Total            charge=   -0.000000
--
 
 

      Expectation values of various properties for root number:  1
      -----------------------------------------------------------
 
 
++    Molecular properties:
      ---------------------
 
      Charge (e):
                      =   -0.0000
      Dipole Moment (debye):
      Origin of the operator (angstrom)=    0.0000    0.0000    0.0000
                   X=  0.0000E+00               Y=  0.0000E+00               Z= -2.7510E-01           Total=  2.7510E-01
      Quadrupole Moment (debye*angstrom):
      Origin of the operator (angstrom)=    0.0000    0.0000    1.2355
                  XX= -2.9360E+01              XY=  0.0000E+00              XZ=  0.0000E+00              YY= -2.7438E+01
                  YZ=  0.0000E+00              ZZ= -2.6931E+01
      In traceless form (debye*angstrom)
                  XX= -2.1749E+00              XY=  0.0000E+00              XZ=  0.0000E+00              YY=  7.0721E-01
                  YZ=  0.0000E+00              ZZ=  1.4677E+00
--
 
 
      Input file to MOLDEN was generated!
 
      Average orbitals are written to the RASORB file
      Natural orbitals for root   1 are written to the RASORB.1 file
      Spin density orbitals for root   1 are written to the SPDORB.1 file
 
--- Stop Module: rasscf at Fri Dec  5 00:56:36 2025 /rc=_RC_ALL_IS_WELL_ ---
*** files: cyclo-opt.rasscf.molden cyclo-opt.RasOrb cyclo-opt.RasOrb.1 cyclo-opt.SpdOrb.1 xmldump
    saved to directory /home/charlie/input_examples/molcas/cyclopentadiene
--- Module rasscf spent 2 seconds ---

*** symbolic link created: INPORB -> cyclo-opt.RasOrb
--- Start Module: alaska at Fri Dec  5 00:56:39 2025 ---
 
()()()()()()()()()()()()()()()()()()()()()()()()()()()()()()()()()()()()()()()()()()()()()()()()()()

                                              &ALASKA

             launched 10 MPI processes, running in PARALLEL mode (work-sharing enabled)
                       available to each process: 2.0 GB of memory, 1 thread
                                        master pid: 3069279
()()()()()()()()()()()()()()()()()()()()()()()()()()()()()()()()()()()()()()()()()()()()()()()()()()
 
 
                     Threshold for contributions to the gradient: 1.000E-07
 
 
                    ********************************************
                    * Symmetry Adapted Cartesian Displacements *
                    ********************************************
 
 
           Irreducible representation : a1 
           Basis function(s) of irrep: z                                                                               
 
 Basis Label        Type   Center Phase
   1   C1           z         1     1
   2   C2           y         2     1      3    -1
   3   C2           z         2     1      3     1
   4   C3           y         4     1      5    -1
   5   C3           z         4     1      5     1
   6   H1           x         6     1      7    -1
   7   H1           z         6     1      7     1
   8   H2           y         8     1      9    -1
   9   H2           z         8     1      9     1
  10   H3           y        10     1     11    -1
  11   H3           z        10     1     11     1
 
           Irreducible representation : a2 
           Basis function(s) of irrep: xy, Rz, I                                                                       
 
 Basis Label        Type   Center Phase
  12   C2           x         2     1      3    -1
  13   C3           x         4     1      5    -1
  14   H1           y         6     1      7    -1
  15   H2           x         8     1      9    -1
  16   H3           x        10     1     11    -1
 
           Irreducible representation : b2 
           Basis function(s) of irrep: y, yz, Rx                                                                       
 
 Basis Label        Type   Center Phase
  17   C1           y         1     1
  18   C2           y         2     1      3     1
  19   C2           z         2     1      3    -1
  20   C3           y         4     1      5     1
  21   C3           z         4     1      5    -1
  22   H1           y         6     1      7     1
  23   H2           y         8     1      9     1
  24   H2           z         8     1      9    -1
  25   H3           y        10     1     11     1
  26   H3           z        10     1     11    -1
 
           Irreducible representation : b1 
           Basis function(s) of irrep: x, xz, Ry                                                                       
 
 Basis Label        Type   Center Phase
  27   C1           x         1     1
  28   C2           x         2     1      3     1
  29   C3           x         4     1      5     1
  30   H1           x         6     1      7     1
  31   H1           z         6     1      7    -1
  32   H2           x         8     1      9     1
  33   H3           x        10     1     11     1
 
                     No automatic utilization of translational and rotational invariance of the energy is employed.
 
 Conventional ERI gradients!
 Exit Drvg1
 
 **************************************************
 *                                                *
 *              Molecular gradients               *
 *                                                *
 **************************************************
 
  Irreducible representation: a1 
 ------------------------------------------------------------------------------------------
                              X                       Y                       Z
 ------------------------------------------------------------------------------------------
  C1                0.00000000000000E+00    0.00000000000000E+00    3.50535067145143E-02
  C2                0.00000000000000E+00   -1.36245365889422E-02    3.15903724385969E-03
  C2                0.00000000000000E+00    1.36245365889422E-02    3.15903724385969E-03
  C3                0.00000000000000E+00   -1.97485073735137E-02   -1.62860853720161E-02
  C3                0.00000000000000E+00    1.97485073735137E-02   -1.62860853720161E-02
  H1                4.84186248698393E-03    0.00000000000000E+00   -4.94193941664722E-03
  H1               -4.84186248698393E-03    0.00000000000000E+00   -4.94193941664722E-03
  H2                0.00000000000000E+00    1.34393551894174E-03    2.70708443002032E-04
  H2                0.00000000000000E+00   -1.34393551894174E-03    2.70708443002032E-04
  H3                0.00000000000000E+00    2.11078080517169E-03    2.71525744520940E-04
  H3                0.00000000000000E+00   -2.11078080517169E-03    2.71525744520940E-04
 ------------------------------------------------------------------------------------------
 
--- Stop Module: alaska at Fri Dec  5 00:56:41 2025 /rc=_RC_ALL_IS_WELL_ ---
*** files: xmldump
    saved to directory /home/charlie/input_examples/molcas/cyclopentadiene
--- Module alaska spent 2 seconds ---

*** symbolic link created: INPORB -> cyclo-opt.RasOrb
--- Start Module: slapaf at Fri Dec  5 00:56:44 2025 ---
 
()()()()()()()()()()()()()()()()()()()()()()()()()()()()()()()()()()()()()()()()()()()()()()()()()()

                                              &SLAPAF

             launched 10 MPI processes, running in PARALLEL mode (work-sharing enabled)
                       available to each process: 2.0 GB of memory, 1 thread
                                        master pid: 3069409
()()()()()()()()()()()()()()()()()()()()()()()()()()()()()()()()()()()()()()()()()()()()()()()()()()
 
 
 
++       Slapaf input parameters:
         ------------------------
 
 Maximum number of iterations:                80
 Convergence test a la Schlegel.
 Convergence criterion on gradient/para.<=: 1.0E-03
 Convergence criterion on step/parameter<=: 1.0E-03
 Convergence criterion on energy change <=: 5.0E-07
 Parameters for step-restricted optimization
 Maximum step length (initial seed):       3.00E-01
 
 -RFO activated with parameters:
   Maximum number of data points used in RFO:      5
 Line search is performed
 
 
 -Optimization for minimum.
  Optimization method: RS-RFO.
 
 -Initial Hessian guessed by Hessian Model Function (HMF).
  HMF augmented with weak interactions.
 
 -Hessian update method: Broyden-Fletcher-Goldfarb-Shanno
  Maximum number of points in Hessian update:  5
 
 -Relaxation will be done on non-redundant internal coordinates, based on
  force constant weighted redundant internal coordinates.
 
--
 
 ******************************************
 * Statistics of the internal coordinates *
 ******************************************
 Translations and Rotations:         0
 Bonds                     :         6
 Angles                    :        10
 Torsions                  :        11
 Out-of-plane angles       :         2
 
 
**********************************************************************************************************************
*                                    Energy Statistics for Geometry Optimization                                     *
**********************************************************************************************************************
                       Energy     Grad      Grad              Step                 Estimated   Geom       Hessian     
Iter      Energy       Change     Norm      Max    Element    Max     Element     Final Energy Update Update   Index  
  1   -190.53756294  0.00000000 0.055127 -0.027196 nrc003  -0.058377  nrc003     -190.53896336 RS-RFO  None      0    
 
       +----------------------------------+----------------------------------+
       +    Cartesian Displacements       +    Gradient in internals         +
       +  Value      Threshold Converged? +  Value      Threshold Converged? +
 +-----+----------------------------------+----------------------------------+
 + RMS + 2.1950E-02  4.0000E-03     No    + 1.7433E-02  1.0000E-03     No    +
 +-----+----------------------------------+----------------------------------+
 + Max + 4.1075E-02  6.0000E-03     No    + 2.7196E-02  1.5000E-03     No    +
 +-----+----------------------------------+----------------------------------+
 + dE  + 0.0000E+00  5.0000E-07     ---   +
 +-----+----------------------------------+
 
 Convergence not reached yet!
 
*****************************************************************************************************************
*****************************************************************************************************************
 
++ Geometry section
 
********************************************************************************
  Geometrical information of the new structure
********************************************************************************
 
 
 *********************************************************
 * Nuclear coordinates for the next iteration / bohr     *
 *********************************************************
  ATOM              X               Y               Z     
  C1               0.000000        0.000000       -0.037652
  C2               0.000000        2.228518        1.776980
  C3               0.000000        1.401425        4.193227
  H1               1.660738        0.000000       -1.259238
  H2               0.000000        4.168403        1.145040
  H3               0.000000        2.555013        5.876982
 
 
 *********************************************************
 * Nuclear coordinates for the next iteration / angstrom *
 *********************************************************
  ATOM              X               Y               Z     
  C1               0.000000        0.000000       -0.019925
  C2               0.000000        1.179281        0.940337
  C3               0.000000        0.741602        2.218960
  H1               0.878825        0.000000       -0.666360
  H2               0.000000        2.205824        0.605929
  H3               0.000000        1.352055        3.109965
 
 
                    *************************************** 
                    *    InterNuclear Distances / bohr    * 
                    *************************************** 
 
               1 C1            2 C2            3 C2            4 C3            5 C3    
    1 C1       0.000000
    2 C2       2.873880        0.000000
    3 C2       2.873880        4.457037        0.000000
    4 C3       4.456942        2.553886        4.360589        0.000000
    5 C3       4.456942        4.360589        2.553886        2.802849        0.000000
    6 H1       2.061631        4.116183        4.116183        5.869533        5.869533
    7 H1       2.061631        4.116183        4.116183        5.869533        5.869533
    8 H2       4.332937        2.040221        6.428060        4.116748        6.349364
    9 H2       4.332937        6.428060        2.040221        6.349364        4.116748
   10 H3       6.442902        4.112981        6.300174        2.041029        4.299818
   11 H3       6.442902        6.300174        4.112981        4.299818        2.041029
 
               6 H1            7 H1            8 H2            9 H2           10 H3    
    6 H1       0.000000
    7 H1       3.321476        0.000000
    8 H2       5.090598        5.090598        0.000000
    9 H2       5.090598        5.090598        8.336806        0.000000
   10 H3       7.759625        7.759625        4.999430        8.221655        0.000000
   11 H3       7.759625        7.759625        8.221655        4.999430        5.110027
 
              11 H3    
   11 H3       0.000000
 
                    ******************************************* 
                    *    InterNuclear Distances / angstrom    * 
                    ******************************************* 
 
               1 C1            2 C2            3 C2            4 C3            5 C3    
    1 C1       0.000000
    2 C2       1.520792        0.000000
    3 C2       1.520792        2.358562        0.000000
    4 C3       2.358512        1.351458        2.307524        0.000000
    5 C3       2.358512        2.307524        1.351458        1.483204        0.000000
    6 H1       1.090968        2.178190        2.178190        3.106023        3.106023
    7 H1       1.090968        2.178190        2.178190        3.106023        3.106023
    8 H2       2.292892        1.079638        3.401583        2.178489        3.359939
    9 H2       2.292892        3.401583        1.079638        3.359939        2.178489
   10 H3       3.409437        2.176496        3.333908        1.080066        2.275366
   11 H3       3.409437        3.333908        2.176496        2.275366        1.080066
 
               6 H1            7 H1            8 H2            9 H2           10 H3    
    6 H1       0.000000
    7 H1       1.757649        0.000000
    8 H2       2.693828        2.693828        0.000000
    9 H2       2.693828        2.693828        4.411648        0.000000
   10 H3       4.106217        4.106217        2.645585        4.350712        0.000000
   11 H3       4.106217        4.106217        4.350712        2.645585        2.704110
 
              11 H3    
   11 H3       0.000000
 
                    ************************************** 
                    *    Valence Bond Angles / degree    * 
                    ************************************** 
                          Atom centers                 Phi
                      2 C2       1 C1       3 C2       101.69
                      2 C2       1 C1       6 H1       111.97
                      2 C2       1 C1       7 H1       111.97
                      3 C2       1 C1       6 H1       111.97
                      3 C2       1 C1       7 H1       111.97
                      6 H1       1 C1       7 H1       107.33
                      1 C1       2 C2       4 C3       110.26
                      1 C1       2 C2       8 H2       122.80
                      4 C3       2 C2       8 H2       126.94
                      1 C1       3 C2       5 C3       110.26
                      1 C1       3 C2       9 H2       122.80
                      5 C3       3 C2       9 H2       126.94
                      2 C2       4 C3       5 C3       108.90
                      2 C2       4 C3      10 H3       126.69
                      5 C3       4 C3      10 H3       124.42
                      3 C2       5 C3       4 C3       108.90
                      3 C2       5 C3      11 H3       126.69
                      4 C3       5 C3      11 H3       124.42
 
           ***************************************************************
           *              Valence Dihedral Angles / degree               *
           ***************************************************************
                    Atom centers                       Phi1     Phi2     Theta 
           3 C2       1 C1       2 C2       4 C3        101.69   110.26    -0.00
           3 C2       1 C1       2 C2       8 H2        101.69   122.80  -180.00
           6 H1       1 C1       2 C2       8 H2        111.97   122.80    60.30
           7 H1       1 C1       2 C2       8 H2        111.97   122.80   -60.30
           2 C2       1 C1       3 C2       5 C3        101.69   110.26    -0.00
           2 C2       1 C1       3 C2       9 H2        101.69   122.80  -180.00
           6 H1       1 C1       3 C2       9 H2        111.97   122.80   -60.30
           7 H1       1 C1       3 C2       9 H2        111.97   122.80    60.30
           4 C3       2 C2       1 C1       6 H1        110.26   111.97  -119.70
           4 C3       2 C2       1 C1       7 H1        110.26   111.97   119.70
           1 C1       2 C2       4 C3       5 C3        110.26   108.90    -0.00
           1 C1       2 C2       4 C3      10 H3        110.26   126.69  -180.00
           8 H2       2 C2       4 C3      10 H3        126.94   126.69    -0.00
           5 C3       3 C2       1 C1       6 H1        110.26   111.97   119.70
           5 C3       3 C2       1 C1       7 H1        110.26   111.97  -119.70
           1 C1       3 C2       5 C3       4 C3        110.26   108.90    -0.00
           1 C1       3 C2       5 C3      11 H3        110.26   126.69  -180.00
           9 H2       3 C2       5 C3      11 H3        126.94   126.69    -0.00
           5 C3       4 C3       2 C2       8 H2        108.90   126.94  -180.00
           2 C2       4 C3       5 C3       3 C2        108.90   108.90     0.00
           2 C2       4 C3       5 C3      11 H3        108.90   124.42  -180.00
          10 H3       4 C3       5 C3      11 H3        124.42   124.42    -0.00
           4 C3       5 C3       3 C2       9 H2        108.90   126.94  -180.00
           3 C2       5 C3       4 C3      10 H3        108.90   124.42  -180.00
--
--- Stop Module: slapaf at Fri Dec  5 00:56:46 2025 /rc=_RC_CONTINUE_LOOP_ ---
*** files: cyclo-opt.geo.molden cyclo-opt.structure cyclo-opt.Opt.xyz xmldump
    saved to directory /home/charlie/input_examples/molcas/cyclopentadiene
--- Module slapaf spent 2 seconds ---

>>> END DO

*** symbolic link created: INPORB -> cyclo-opt.RasOrb
--- Start Module: seward at Fri Dec  5 00:56:49 2025 ---
--- Stop Module: seward at Fri Dec  5 00:56:52 2025 /rc=_RC_ALL_IS_WELL_ ---
*** files: xmldump
    saved to directory /home/charlie/input_examples/molcas/cyclopentadiene
--- Module seward spent 2 seconds ---

>>> IF (ITER == 1)
(Skipped)

*** symbolic link created: INPORB -> cyclo-opt.RasOrb
--- Start Module: rasscf at Fri Dec  5 00:56:55 2025 ---
--- Stop Module: rasscf at Fri Dec  5 00:56:57 2025 /rc=_RC_ALL_IS_WELL_ ---
*** files: cyclo-opt.rasscf.molden cyclo-opt.RasOrb cyclo-opt.RasOrb.1 cyclo-opt.SpdOrb.1 xmldump
    saved to directory /home/charlie/input_examples/molcas/cyclopentadiene
--- Module rasscf spent 2 seconds ---

*** symbolic link created: INPORB -> cyclo-opt.RasOrb
--- Start Module: alaska at Fri Dec  5 00:57:00 2025 ---
 Exit Drvg1
--- Stop Module: alaska at Fri Dec  5 00:57:03 2025 /rc=_RC_ALL_IS_WELL_ ---
*** files: xmldump
    saved to directory /home/charlie/input_examples/molcas/cyclopentadiene
--- Module alaska spent 2 seconds ---

*** symbolic link created: INPORB -> cyclo-opt.RasOrb
--- Start Module: slapaf at Fri Dec  5 00:57:06 2025 ---
 
**********************************************************************************************************************
*                                    Energy Statistics for Geometry Optimization                                     *
**********************************************************************************************************************
                       Energy     Grad      Grad              Step                 Estimated   Geom       Hessian     
Iter      Energy       Change     Norm      Max    Element    Max     Element     Final Energy Update Update   Index  
  1   -190.53756294  0.00000000 0.055127 -0.027196 nrc003  -0.058377  nrc003     -190.53896336 RS-RFO  None      0    
  2   -190.53911342 -0.00155048 0.009700  0.005022 nrc006  -0.021583  nrc008     -190.53923755 RS-RFO  BFGS      0    
 
       +----------------------------------+----------------------------------+
       +    Cartesian Displacements       +    Gradient in internals         +
       +  Value      Threshold Converged? +  Value      Threshold Converged? +
 +-----+----------------------------------+----------------------------------+
 + RMS + 1.1605E-02  4.0000E-03     No    + 3.0674E-03  1.0000E-03     No    +
 +-----+----------------------------------+----------------------------------+
 + Max + 1.8202E-02  6.0000E-03     No    + 5.0219E-03  1.5000E-03     No    +
 +-----+----------------------------------+----------------------------------+
 + dE  + 1.5505E-03  5.0000E-07     No    +
 +-----+----------------------------------+
 
 Convergence not reached yet!
 
*****************************************************************************************************************
*****************************************************************************************************************
 
++ Geometry section
 
********************************************************************************
  Geometrical information of the new structure
********************************************************************************
 
 
 *********************************************************
 * Nuclear coordinates for the next iteration / bohr     *
 *********************************************************
  ATOM              X               Y               Z     
  C1               0.000000        0.000000       -0.036306
  C2               0.000000        2.244608        1.773246
  C3               0.000000        1.409166        4.188995
  H1               1.662574        0.000000       -1.252073
  H2               0.000000        4.186509        1.143043
  H3               0.000000        2.555827        5.878436
 
 
 *********************************************************
 * Nuclear coordinates for the next iteration / angstrom *
 *********************************************************
  ATOM              X               Y               Z     
  C1               0.000000        0.000000       -0.019212
  C2               0.000000        1.187795        0.938361
  C3               0.000000        0.745699        2.216721
  H1               0.879796        0.000000       -0.662569
  H2               0.000000        2.215405        0.604872
  H3               0.000000        1.352486        3.110734
 
--
--- Stop Module: slapaf at Fri Dec  5 00:57:08 2025 /rc=_RC_CONTINUE_LOOP_ ---
*** files: cyclo-opt.geo.molden cyclo-opt.structure cyclo-opt.Opt.xyz xmldump
    saved to directory /home/charlie/input_examples/molcas/cyclopentadiene
--- Module slapaf spent 2 seconds ---

>>> END DO

*** symbolic link created: INPORB -> cyclo-opt.RasOrb
--- Start Module: seward at Fri Dec  5 00:57:11 2025 ---
--- Stop Module: seward at Fri Dec  5 00:57:13 2025 /rc=_RC_ALL_IS_WELL_ ---
*** files: xmldump
    saved to directory /home/charlie/input_examples/molcas/cyclopentadiene
--- Module seward spent 2 seconds ---

>>> IF (ITER == 1)
(Skipped)

*** symbolic link created: INPORB -> cyclo-opt.RasOrb
--- Start Module: rasscf at Fri Dec  5 00:57:16 2025 ---
--- Stop Module: rasscf at Fri Dec  5 00:57:19 2025 /rc=_RC_ALL_IS_WELL_ ---
*** files: cyclo-opt.rasscf.molden cyclo-opt.RasOrb cyclo-opt.RasOrb.1 cyclo-opt.SpdOrb.1 xmldump
    saved to directory /home/charlie/input_examples/molcas/cyclopentadiene
--- Module rasscf spent 3 seconds ---

*** symbolic link created: INPORB -> cyclo-opt.RasOrb
--- Start Module: alaska at Fri Dec  5 00:57:22 2025 ---
 Exit Drvg1
--- Stop Module: alaska at Fri Dec  5 00:57:25 2025 /rc=_RC_ALL_IS_WELL_ ---
*** files: xmldump
    saved to directory /home/charlie/input_examples/molcas/cyclopentadiene
--- Module alaska spent 2 seconds ---

*** symbolic link created: INPORB -> cyclo-opt.RasOrb
--- Start Module: slapaf at Fri Dec  5 00:57:28 2025 ---
 
**********************************************************************************************************************
*                                    Energy Statistics for Geometry Optimization                                     *
**********************************************************************************************************************
                       Energy     Grad      Grad              Step                 Estimated   Geom       Hessian     
Iter      Energy       Change     Norm      Max    Element    Max     Element     Final Energy Update Update   Index  
  1   -190.53756294  0.00000000 0.055127 -0.027196 nrc003  -0.058377  nrc003     -190.53896336 RS-RFO  None      0    
  2   -190.53911342 -0.00155048 0.009700  0.005022 nrc006  -0.021583  nrc008     -190.53923755 RS-RFO  BFGS      0    
  3   -190.53918867 -0.00007525 0.004771  0.002771 nrc008   0.010417  nrc008     -190.53921078 RS-RFO  BFGS      0    
 
       +----------------------------------+----------------------------------+
       +    Cartesian Displacements       +    Gradient in internals         +
       +  Value      Threshold Converged? +  Value      Threshold Converged? +
 +-----+----------------------------------+----------------------------------+
 + RMS + 4.7647E-03  4.0000E-03     No    + 1.5088E-03  1.0000E-03     No    +
 +-----+----------------------------------+----------------------------------+
 + Max + 6.2469E-03  6.0000E-03     No    + 2.7708E-03  1.5000E-03     No    +
 +-----+----------------------------------+----------------------------------+
 + dE  + 7.5248E-05  5.0000E-07     No    +
 +-----+----------------------------------+
 
 Convergence not reached yet!
 
*****************************************************************************************************************
*****************************************************************************************************************
 
++ Geometry section
 
********************************************************************************
  Geometrical information of the new structure
********************************************************************************
 
 
 *********************************************************
 * Nuclear coordinates for the next iteration / bohr     *
 *********************************************************
  ATOM              X               Y               Z     
  C1               0.000000        0.000000       -0.039080
  C2               0.000000        2.239540        1.775874
  C3               0.000000        1.408501        4.191804
  H1               1.661618        0.000000       -1.257995
  H2               0.000000        4.180820        1.142864
  H3               0.000000        2.555314        5.881874
 
 
 *********************************************************
 * Nuclear coordinates for the next iteration / angstrom *
 *********************************************************
  ATOM              X               Y               Z     
  C1               0.000000        0.000000       -0.020680
  C2               0.000000        1.185113        0.939752
  C3               0.000000        0.745347        2.218207
  H1               0.879290        0.000000       -0.665702
  H2               0.000000        2.212395        0.604777
  H3               0.000000        1.352214        3.112553
 
--
--- Stop Module: slapaf at Fri Dec  5 00:57:30 2025 /rc=_RC_CONTINUE_LOOP_ ---
*** files: cyclo-opt.geo.molden cyclo-opt.structure cyclo-opt.Opt.xyz xmldump
    saved to directory /home/charlie/input_examples/molcas/cyclopentadiene
--- Module slapaf spent 2 seconds ---

>>> END DO

*** symbolic link created: INPORB -> cyclo-opt.RasOrb
--- Start Module: seward at Fri Dec  5 00:57:33 2025 ---
--- Stop Module: seward at Fri Dec  5 00:57:35 2025 /rc=_RC_ALL_IS_WELL_ ---
*** files: xmldump
    saved to directory /home/charlie/input_examples/molcas/cyclopentadiene
--- Module seward spent 2 seconds ---

>>> IF (ITER == 1)
(Skipped)

*** symbolic link created: INPORB -> cyclo-opt.RasOrb
--- Start Module: rasscf at Fri Dec  5 00:57:38 2025 ---
--- Stop Module: rasscf at Fri Dec  5 00:57:41 2025 /rc=_RC_ALL_IS_WELL_ ---
*** files: cyclo-opt.rasscf.molden cyclo-opt.RasOrb cyclo-opt.RasOrb.1 cyclo-opt.SpdOrb.1 xmldump
    saved to directory /home/charlie/input_examples/molcas/cyclopentadiene
--- Module rasscf spent 2 seconds ---

*** symbolic link created: INPORB -> cyclo-opt.RasOrb
--- Start Module: alaska at Fri Dec  5 00:57:44 2025 ---
 Exit Drvg1
--- Stop Module: alaska at Fri Dec  5 00:57:46 2025 /rc=_RC_ALL_IS_WELL_ ---
*** files: xmldump
    saved to directory /home/charlie/input_examples/molcas/cyclopentadiene
--- Module alaska spent 2 seconds ---

*** symbolic link created: INPORB -> cyclo-opt.RasOrb
--- Start Module: slapaf at Fri Dec  5 00:57:49 2025 ---
 
**********************************************************************************************************************
*                                    Energy Statistics for Geometry Optimization                                     *
**********************************************************************************************************************
                       Energy     Grad      Grad              Step                 Estimated   Geom       Hessian     
Iter      Energy       Change     Norm      Max    Element    Max     Element     Final Energy Update Update   Index  
  1   -190.53756294  0.00000000 0.055127 -0.027196 nrc003  -0.058377  nrc003     -190.53896336 RS-RFO  None      0    
  2   -190.53911342 -0.00155048 0.009700  0.005022 nrc006  -0.021583  nrc008     -190.53923755 RS-RFO  BFGS      0    
  3   -190.53918867 -0.00007525 0.004771  0.002771 nrc008   0.010417  nrc008     -190.53921078 RS-RFO  BFGS      0    
  4   -190.53921055 -0.00002188 0.000606  0.000287 nrc001   0.000720  nrc007     -190.53921079 RS-RFO  BFGS      0    
 
       +----------------------------------+----------------------------------+
       +    Cartesian Displacements       +    Gradient in internals         +
       +  Value      Threshold Converged? +  Value      Threshold Converged? +
 +-----+----------------------------------+----------------------------------+
 + RMS + 4.9165E-04  4.0000E-03     Yes   + 1.9178E-04  1.0000E-03     Yes   +
 +-----+----------------------------------+----------------------------------+
 + Max + 8.6700E-04  6.0000E-03     Yes   + 2.8651E-04  1.5000E-03     Yes   +
 +-----+----------------------------------+----------------------------------+
 + dE  + 2.1884E-05  5.0000E-07     No    +
 +-----+----------------------------------+
 
 Geometry is converged in   4 iterations to a Minimum Structure
 
*****************************************************************************************************************
*****************************************************************************************************************
 
++ Geometry section
 
********************************************************************************
  Geometrical information of the final structure
********************************************************************************
 
  NOTE: on convergence the final predicted structure will be printed here.
  This is not identical to the structure printed in the head of the output.
 
 *********************************************************
 * Nuclear coordinates of the final structure / bohr     *
 *********************************************************
  ATOM              X               Y               Z     
  C1               0.000000        0.000000       -0.038782
  C2               0.000000        2.239505        1.775829
  C3               0.000000        1.408526        4.191415
  H1               1.662188        0.000000       -1.257368
  H2               0.000000        4.180597        1.142501
  H3               0.000000        2.554846        5.881746
 
 
 *********************************************************
 * Nuclear coordinates of the final structure / angstrom *
 *********************************************************
  ATOM              X               Y               Z     
  C1               0.000000        0.000000       -0.020523
  C2               0.000000        1.185095        0.939728
  C3               0.000000        0.745360        2.218001
  H1               0.879592        0.000000       -0.665371
  H2               0.000000        2.212277        0.604585
  H3               0.000000        1.351966        3.112486
 
 
                    *************************************** 
                    *    InterNuclear Distances / bohr    * 
                    *************************************** 
 
               1 C1            2 C2            3 C2            4 C3            5 C3    
    1 C1       0.000000
    2 C2       2.882394        0.000000
    3 C2       2.882394        4.479010        0.000000
    4 C3       4.458533        2.554522        4.375293        0.000000
    5 C3       4.458533        4.375293        2.554522        2.817053        0.000000
    6 H1       2.061025        4.120502        4.120502        5.868224        5.868224
[...]
                    ************************************** 
                          Atom centers                 Phi
                      2 C2       1 C1       3 C2       101.97
                      2 C2       1 C1       6 H1       111.85
                      2 C2       1 C1       7 H1       111.85
                      3 C2       1 C1       6 H1       111.85
                      3 C2       1 C1       7 H1       111.85
                      6 H1       1 C1       7 H1       107.51
                      1 C1       2 C2       4 C3       110.03
                      1 C1       2 C2       8 H2       122.91
                      4 C3       2 C2       8 H2       127.05
                      1 C1       3 C2       5 C3       110.03
                      1 C1       3 C2       9 H2       122.91
                      5 C3       3 C2       9 H2       127.05
                      2 C2       4 C3       5 C3       108.98
                      2 C2       4 C3      10 H3       126.87
                      5 C3       4 C3      10 H3       124.14
                      3 C2       5 C3       4 C3       108.98
                      3 C2       5 C3      11 H3       126.87
                      4 C3       5 C3      11 H3       124.14
 
           ***************************************************************
           *              Valence Dihedral Angles / degree               *
           ***************************************************************
                    Atom centers                       Phi1     Phi2     Theta 
           3 C2       1 C1       2 C2       4 C3        101.97   110.03    -0.00
           3 C2       1 C1       2 C2       8 H2        101.97   122.91  -180.00
           6 H1       1 C1       2 C2       8 H2        111.85   122.91    60.33
           7 H1       1 C1       2 C2       8 H2        111.85   122.91   -60.33
           2 C2       1 C1       3 C2       5 C3        101.97   110.03    -0.00
           2 C2       1 C1       3 C2       9 H2        101.97   122.91  -180.00
           6 H1       1 C1       3 C2       9 H2        111.85   122.91   -60.33
           7 H1       1 C1       3 C2       9 H2        111.85   122.91    60.33
           4 C3       2 C2       1 C1       6 H1        110.03   111.85  -119.67
           4 C3       2 C2       1 C1       7 H1        110.03   111.85   119.67
           1 C1       2 C2       4 C3       5 C3        110.03   108.98    -0.00
           1 C1       2 C2       4 C3      10 H3        110.03   126.87  -180.00
           8 H2       2 C2       4 C3      10 H3        127.05   126.87    -0.00
           5 C3       3 C2       1 C1       6 H1        110.03   111.85   119.67
           5 C3       3 C2       1 C1       7 H1        110.03   111.85  -119.67
           1 C1       3 C2       5 C3       4 C3        110.03   108.98    -0.00
           1 C1       3 C2       5 C3      11 H3        110.03   126.87  -180.00
           9 H2       3 C2       5 C3      11 H3        127.05   126.87    -0.00
           5 C3       4 C3       2 C2       8 H2        108.98   127.05  -180.00
           2 C2       4 C3       5 C3       3 C2        108.98   108.98     0.00
           2 C2       4 C3       5 C3      11 H3        108.98   124.14  -180.00
          10 H3       4 C3       5 C3      11 H3        124.14   124.14    -0.00
           4 C3       5 C3       3 C2       9 H2        108.98   127.05  -180.00
           3 C2       5 C3       4 C3      10 H3        108.98   124.14  -180.00
--
--- Stop Module: slapaf at Fri Dec  5 00:57:51 2025 /rc=_RC_INVOKED_OTHER_MODULE_ ---
*** files: cyclo-opt.geo.molden cyclo-opt.structure cyclo-opt.Opt.xyz xmldump
    saved to directory /home/charlie/input_examples/molcas/cyclopentadiene
--- Module slapaf spent 2 seconds ---

*** symbolic link created: INPORB -> cyclo-opt.RasOrb
--- Start Module: last_energy at Fri Dec  5 00:57:54 2025 ---
 
()()()()()()()()()()()()()()()()()()()()()()()()()()()()()()()()()()()()()()()()()()()()()()()()()()

                                            &LAST_ENERGY

             launched 10 MPI processes, running in PARALLEL mode (work-sharing enabled)
                       available to each process: 2.0 GB of memory, 1 thread
                                        master pid: 3071082
()()()()()()()()()()()()()()()()()()()()()()()()()()()()()()()()()()()()()()()()()()()()()()()()()()
 
 
    Geometry read from RUNFILE
 
               SEWARD will generate:
                  Multipole Moment integrals up to order  2
                  Kinetic Energy integrals
                  Nuclear Attraction integrals (point charge)
                  One-Electron Hamiltonian integrals
                  Velocity integrals
                  Orbital angular momentum around ( 0.0000  0.0000  2.3348 )
                  Velocity quadrupole around ( 0.0000  0.0000  2.3373 )
                  Two-Electron Repulsion integrals
 
 Title:
                            1,3,-cyclopentadiene. STO-3G basis set.                     
 
 
                   Integrals are discarded if absolute value <: 1.00E-14
                   Integral cutoff threshold is set to       <: 1.00E-16
 
                    Unitary symmetry adaptation
 
 
            Nuclear Potential Energy            155.51388142 au
 
 
      Basis set specifications :
      Symmetry species         a1   a2   b2   b1 
      Basis functions           14    2   11    4
 
 
      Header of the ONEINT file:
      --------------------------
      
      Integrals generated by Gateway/Seward, Fri Dec  5 00:57:56 2025
 
 
      OrdInt status: non-squared
 
 
      Cartesian coordinates in angstrom:
      -----------------------------------------------------
      No.  Label        X            Y            Z        
      -----------------------------------------------------
       1   C1         0.00000000   0.00000000  -0.02052264
       2   C2         0.00000000   1.18509513   0.93972822
       3   C3         0.00000000   0.74536008   2.21800127
       4   H1         0.87959218   0.00000000  -0.66537073
       5   H2         0.00000000   2.21227672   0.60458530
       6   H3         0.00000000   1.35196619   3.11248598
       7   C2         0.00000000  -1.18509513   0.93972822
       8   C3         0.00000000  -0.74536008   2.21800127
       9   H1        -0.87959218   0.00000000  -0.66537073
      10   H2         0.00000000  -2.21227672   0.60458530
      11   H3         0.00000000  -1.35196619   3.11248598
      -----------------------------------------------------
      Nuclear repulsion energy =  155.51388142
 
++    Wave function specifications:
      -----------------------------
 
      Number of closed shell electrons          30
      Number of electrons in active shells       6
      Max number of holes in RAS1 space          0
      Max nr of electrons in RAS3 space          0
      Number of inactive orbitals               15
      Number of active orbitals                  5
      Number of secondary orbitals              11
      Spin quantum number                      0.0
      State symmetry                             1
--
 
++    Orbital specifications:
      -----------------------
 
      Symmetry species                           1   2   3   4
                                                a1  a2  b2  b1
      Frozen orbitals                            0   0   0   0
      Inactive orbitals                          9   0   6   0
      Active orbitals                            0   2   0   3
      RAS1 orbitals                              0   0   0   0
      RAS2 orbitals                              0   2   0   3
      RAS3 orbitals                              0   0   0   0
      Secondary orbitals                         5   0   5   1
      Deleted orbitals                           0   0   0   0
      Number of basis functions                 14   2  11   4
--
 
++    CI expansion specifications:
      ----------------------------
 
      Number of CSFs                            28
      Number of determinants                    31
      Number of root(s) required                 1
      Root chosen for geometry opt.              1
      CI root used                               1
         
      highest root included in the CI            1
      max. size of the explicit Hamiltonian     28
--
 
++    Optimization specifications:
      ----------------------------
 
      RASSCF algorithm: Conventional
      Maximum number of macro iterations        50
      Maximum number of SX iterations           25
      Threshold for RASSCF energy            1.000E-08
      Threshold for max MO rotation          1.000E-01
      Threshold for max BLB element          1.000E-04
      Level shift parameter                  5.000E-01
      Make Quasi-Newton update
--
      Starting CI array(s) will be read from file
 
      File JOBOLD not found -- use JOBIPH.
      The MO-coefficients are taken from the file:
      JOBIPH
      Title:cyclopentadiene molecule 1A1                                            
 
      Total molecular charge    0.00
 
      ************************************************************************************************************************
      *                                                                                                                      *
      *                                            Wave function control section                                             *
      *                                                                                                                      *
      ************************************************************************************************************************
 
 
                                         RASSCF iterations: Energy and convergence statistics
                                         ----------------------------------------------------
 
      Iter CI   SX   CI       RASSCF       Energy    max ROT     max BLB   max BLB  Level Ln srch  Step   QN   Walltime
          iter iter root      energy       change     param      element    value   shift minimum  type update hh:mm:ss
 Nr of preliminary CI iterations:   1
        1   1    3    1  -190.53921078    0.00E+00  -3.20E-05    8  11 1 -7.19E-05   0.00   0.00    SX    NO    0:00:00
        2   1    3    1  -190.53921080   -1.98E-08*  7.27E-06    4  10 3 -1.73E-05   0.00   0.00    SX    NO    0:00:00
        3   1    2    1  -190.53921081   -1.40E-09  -2.62E-06    8  11 1 -5.88E-06   0.00   0.00    SX    NO    0:00:00
        4   1    2    1  -190.53921081   -1.26E-10  -7.47E-07    5   7 3  1.65E-06   0.00   0.00    SX    NO    0:00:00
      Convergence after  4 iterations
        5   1    2    1  -190.53921081   -1.23E-11  -7.47E-07    5   7 3  5.75E-07   0.00   0.00    SX    NO    0:00:00
 
      ************************************************************************************************************************
                                                      Wave function printout:
                       occupation of active orbitals, and spin coupling of open shells (u,d: Spin up or down)
      ************************************************************************************************************************
 
      Note: transformation to natural orbitals
      has been made, which may change the order of the CSFs.
 
      printout of CI-coefficients larger than  0.05 for root  1
      energy=    -190.539211
      conf/sym  22444     Coeff  Weight
             1  22 200   0.09550 0.00912
             7  20 220  -0.93613 0.87635
            10  20 202   0.09204 0.00847
            14  ud 2ud   0.15851 0.02512
            19  02 220   0.09621 0.00926
            22  02 202  -0.05707 0.00326
            25  uu 2dd  -0.16860 0.02843
            28  00 222   0.19841 0.03937
 
      Natural orbitals and occupation numbers for root  1
      sym 2:   1.841897   0.097621
      sym 4:   1.999727   1.904156   0.156600
 
      ************************************************************************************************************************
      *                                                                                                                      *
      *                                                    Final results                                                     *
      *                                                                                                                      *
      ************************************************************************************************************************
 
 
++    Final optimization conditions:
      ------------------------------
 
      Average CI energy                            -190.53921081
      RASSCF energy for state  1                   -190.53921081
      Super-CI energy                                -0.00000000
      RASSCF energy change                           -0.00000000
      Max change in MO coefficients               8.828E-07
      Max non-diagonal density matrix element    -7.475E-07
      Maximum BLB matrix element                  5.754E-07
      (orbital pair   5,   7 in symmetry   3)
      Norm of electronic gradient            1.575E-06
--
 
 
      Final state energy(ies):
      ------------------------
 
::    RASSCF root number  1 Total energy:   -190.53921081
 
++    Molecular orbitals:
      -------------------
 
      Pseudonatural active orbitals and approximate occupation numbers
 
 
 
 
      Molecular orbitals for symmetry species 1: a1 
 
 
      Orbital                 1         2         3         4         5         6         7         8         9
      Energy           -11.0466  -11.0117  -11.0082   -1.0810   -0.8976   -0.7038   -0.6440   -0.4670   -0.4478
      Occ. No.           2.0000    2.0000    2.0000    2.0000    2.0000    2.0000    2.0000    2.0000    2.0000
 
     1 C1     1s         0.9919    0.0022    0.0054   -0.1104    0.1701   -0.0836   -0.0028    0.0080   -0.0358
     2 C1     2s         0.0376   -0.0003   -0.0077    0.2912   -0.4950    0.2626    0.0125   -0.0390    0.1403
     3 C1     2pz        0.0002   -0.0005   -0.0038    0.0628    0.0337   -0.1675   -0.2048   -0.3860    0.3197
     4 C2     1s        -0.0042    0.0747    0.9895   -0.1586    0.0271    0.1444   -0.0242    0.0165   -0.0176
     5 C2     2s        -0.0084   -0.0048    0.0362    0.3964   -0.0791   -0.4425    0.0908   -0.0862    0.0734
     6 C2     2py        0.0047    0.0014   -0.0010   -0.1003    0.0483   -0.1661    0.3703    0.0247   -0.2949
     7 C2     2pz        0.0039   -0.0042    0.0017    0.0511    0.2035   -0.0492   -0.0905    0.4826    0.0041
     8 C3     1s        -0.0016    0.9899   -0.0741   -0.1600   -0.1613   -0.0776   -0.0164   -0.0218    0.0406
     9 C3     2s         0.0002    0.0292   -0.0097    0.4015    0.4529    0.2509    0.0699    0.0580   -0.1642
    10 C3     2py        0.0000    0.0040   -0.0019   -0.0519   -0.0715   -0.1802    0.2414    0.3447    0.5736
    11 C3     2pz       -0.0001   -0.0016    0.0047   -0.1036    0.0291    0.2720    0.2962   -0.3475    0.1214
    12 H1     1s        -0.0099   -0.0001   -0.0002    0.0784   -0.2210    0.2296    0.1334    0.2957   -0.1766
    13 H2     1s         0.0002   -0.0005   -0.0068    0.0716   -0.0335   -0.2799    0.3050   -0.1816   -0.2638
    14 H3     1s        -0.0001   -0.0066    0.0005    0.0713    0.1432    0.1832    0.2942   -0.0617    0.3596
 
 
 
      Molecular orbitals for symmetry species 2: a2 
 
 
      Orbital                 1         2
      Energy            -0.2254    0.3874
      Occ. No.           1.8419    0.0976
 
     1 C2     2px        0.7510   -0.7209
     2 C3     2px        0.5818    0.9726
 
 
 
      Molecular orbitals for symmetry species 3: b2 
 
 
      Orbital                 1         2         3         4         5         6
      Energy           -11.0120  -11.0083   -0.9030   -0.6752   -0.5047   -0.4409
      Occ. No.           2.0000    2.0000    2.0000    2.0000    2.0000    2.0000
 
     1 C1     2py       -0.0003   -0.0046    0.1204   -0.2111   -0.0272   -0.5077
     2 C2     1s         0.0985    0.9873   -0.2043    0.1005    0.0450    0.0137
     3 C2     2s        -0.0043    0.0361    0.5691   -0.3248   -0.1413   -0.0724
     4 C2     2py        0.0011   -0.0013    0.0064   -0.0906    0.3692    0.4457
     5 C2     2pz       -0.0043    0.0021    0.1036    0.2839   -0.3281    0.3484
     6 C3     1s         0.9869   -0.0979   -0.1452   -0.1419    0.0200    0.0180
     7 C3     2s         0.0411   -0.0119    0.4005    0.4382   -0.0535   -0.0716
     8 C3     2py       -0.0046   -0.0013    0.1466    0.1828    0.0529    0.0158
     9 C3     2pz       -0.0016    0.0042   -0.1276    0.1344    0.4771   -0.2017
    10 H2     1s        -0.0004   -0.0066    0.1773   -0.2586    0.3442    0.3081
    11 H3     1s        -0.0067    0.0009    0.1238    0.3375    0.3646   -0.2217
 
 
 
      Molecular orbitals for symmetry species 4: b1 
 
 
      Orbital                 1         2         3
      Energy            -0.5366   -0.3602    0.2417
      Occ. No.           1.9997    1.9042    0.1566
 
     1 C1     2px        0.5648   -0.0318    0.0823
     2 C2     2px        0.0847    0.5091   -0.8839
     3 C3     2px       -0.0412    0.6843    0.6554
     4 H1     1s         0.5907   -0.1397    0.2019
--
 
      Von Neumann Entropy (Root   1) =  0.67746
 

      Mulliken population analysis for root number:  1
      -----------------------------------------------
 
 
++    Molecular charges:
      ------------------
 
      Mulliken charges per centre and basis function type
      ---------------------------------------------------
 
                C1      C2      C3      H1      H2      H3    
      1s       1.9920  1.9929  1.9929  0.9320  0.9412  0.9395
      2s       1.1793  1.1559  1.1534  0.0000  0.0000  0.0000
      2px      1.0116  1.0052  1.0068  0.0000  0.0000  0.0000
      2pz      0.9843  0.9495  0.9734  0.0000  0.0000  0.0000
      2py      0.9513  0.9558  0.9423  0.0000  0.0000  0.0000
      Total    6.1184  6.0593  6.0688  0.9320  0.9412  0.9395
 
      N-E     -0.1184 -0.0593 -0.0688  0.0680  0.0588  0.0605
 
      Total electronic charge=   36.000000
 
      Total            charge=   -0.000000
--
 
 

      Expectation values of various properties for root number:  1
      -----------------------------------------------------------
 
 
++    Molecular properties:
      ---------------------
 
      Charge (e):
                      =   -0.0000
      Dipole Moment (debye):
      Origin of the operator (angstrom)=    0.0000    0.0000    0.0000
                   X=  0.0000E+00               Y=  0.0000E+00               Z= -2.4490E-01           Total=  2.4490E-01
      Quadrupole Moment (debye*angstrom):
      Origin of the operator (angstrom)=    0.0000    0.0000    1.2369
                  XX= -2.9384E+01              XY=  0.0000E+00              XZ=  0.0000E+00              YY= -2.7455E+01
                  YZ=  0.0000E+00              ZZ= -2.6866E+01
      In traceless form (debye*angstrom)
                  XX= -2.2234E+00              XY=  0.0000E+00              XZ=  0.0000E+00              YY=  6.6993E-01
                  YZ=  0.0000E+00              ZZ=  1.5534E+00
--
 
 
      Input file to MOLDEN was generated!
 
      Average orbitals are written to the RASORB file
      Natural orbitals for root   1 are written to the RASORB.1 file
      Spin density orbitals for root   1 are written to the SPDORB.1 file
 
--- Stop Module: last_energy at Fri Dec  5 00:57:57 2025 /rc=_RC_ALL_IS_WELL_ ---
*** files: cyclo-opt.rasscf.molden cyclo-opt.RasOrb cyclo-opt.RasOrb.1 cyclo-opt.SpdOrb.1 xmldump
    saved to directory /home/charlie/input_examples/molcas/cyclopentadiene
--- Module last_energy spent 3 seconds ---

>>> END DO

.##################.
.# Happy landing! #.
.##################.

    Timing: Wall=46.34 User=68.44 System=25.93
