 argument  1 = tce-ccsdt-bezene.nw
 


============================== echo of input deck ==============================
start benzene_tce_fc
echo
memory total 2000 mb

geometry units angstrom
  symmetry d2h
  C      0.000000    1.396792    0.000000
  H      0.000000    2.484212    0.000000
  C      1.209657    0.698396    0.000000
  H      2.151391    1.242106    0.000000
  C      1.209657   -0.698396    0.000000
  H      2.151391   -1.242106    0.000000
  C      0.000000   -1.396792    0.000000
  H      0.000000   -2.484212    0.000000
  C     -1.209657   -0.698396    0.000000
  H     -2.151391   -1.242106    0.000000
  C     -1.209657    0.698396    0.000000
  H     -2.151391    1.242106    0.000000
end

BASIS "ao basis" CARTESIAN PRINT
#BASIS SET: (4s) -> [2s]
H    S
      0.1873113696E+02       0.3349460434E-01
      0.2825394365E+01       0.2347269535E+00
      0.6401216923E+00       0.8137573261E+00
H    S
      0.1612777588E+00       1.0000000
#BASIS SET: (10s,4p,1d) -> [3s,2p,1d]
C    S
      0.3047524880E+04       0.1834737132E-02
      0.4573695180E+03       0.1403732281E-01
      0.1039486850E+03       0.6884262226E-01
      0.2921015530E+02       0.2321844432E+00
      0.9286662960E+01       0.4679413484E+00
      0.3163926960E+01       0.3623119853E+00
C    SP
      0.7868272350E+01      -0.1193324198E+00       0.6899906659E-01
      0.1881288540E+01      -0.1608541517E+00       0.3164239610E+00
      0.5442492580E+00       0.1143456438E+01       0.7443082909E+00
C    SP
      0.1687144782E+00       0.1000000000E+01       0.1000000000E+01
C    D
      0.8000000000E+00       1.0000000
END

scf
  rhf
end

set tce:save_t T T

tce
  freeze 6
  ccsd(t)
end

task tce energy
================================================================================


                                         
                                         
 
 
             Northwest Computational Chemistry Package (NWChem) 7.2.2
             --------------------------------------------------------
 
 
                    Environmental Molecular Sciences Laboratory
                       Pacific Northwest National Laboratory
                                Richland, WA 99352
 
                              Copyright (c) 1994-2022
                       Pacific Northwest National Laboratory
                            Battelle Memorial Institute
 
             NWChem is an open-source computational chemistry package
                        distributed under the terms of the
                      Educational Community License (ECL) 2.0
             A copy of the license is included with this distribution
                              in the LICENSE.TXT file
 
                                  ACKNOWLEDGMENT
                                  --------------

            This software and its documentation were developed at the
            EMSL at Pacific Northwest National Laboratory, a multiprogram
            national laboratory, operated for the U.S. Department of Energy
            by Battelle under Contract Number DE-AC05-76RL01830. Support
            for this work was provided by the Department of Energy Office
            of Biological and Environmental Research, Office of Basic
            Energy Sciences, and the Office of Advanced Scientific Computing.


           Job information
           ---------------

    hostname        = charliebox
    program         = /apps/nwchem/bin/nwchem
    date            = Thu Apr  9 00:14:17 2026

    compiled        = Tue_Apr_23_01:04:59_2024
    source          = /apps/nwchem-7.2.2-release
    nwchem branch   = 7.2.2
    nwchem revision = N/A
    ga revision     = 5.8.0
    use scalapack   = T
    input           = tce-ccsdt-bezene.nw
    prefix          = benzene_tce_fc.
    data base       = ./benzene_tce_fc.db
    status          = startup
    nproc           =       11
    time left       =     -1s



           Memory information
           ------------------

    heap     =   65535996 doubles =    500.0 Mbytes
    stack    =   65536001 doubles =    500.0 Mbytes
    global   =  131072000 doubles =   1000.0 Mbytes (distinct from heap & stack)
    total    =  262143997 doubles =   2000.0 Mbytes
    verify   = yes
    hardfail = no 


           Directory information
           ---------------------
 
  0 permanent = .
  0 scratch   = .
 
 
 
 
                                NWChem Input Module
                                -------------------
 
 

 Scaling coordinates for geometry "geometry" by  1.889725989
 (inverse scale =  0.529177249)

 Turning off AUTOSYM since
 SYMMETRY directive was detected!
 

          ------
          auto-z
          ------
  no constraints, skipping   0.000000000000000E+000
  no constraints, skipping   0.000000000000000E+000
 
 
                             Geometry "geometry" -> ""
                             -------------------------
 
 Output coordinates in angstroms (scale by  1.889725989 to convert to a.u.)
 
  No.       Tag          Charge          X              Y              Z
 ---- ---------------- ---------- -------------- -------------- --------------
    1 C                    6.0000     0.00000000     1.39679200     0.00000000
    2 H                    1.0000     0.00000000     2.48421200     0.00000000
    3 C                    6.0000     1.20965700     0.69839600     0.00000000
    4 H                    1.0000     2.15139100     1.24210600     0.00000000
    5 C                    6.0000     1.20965700    -0.69839600     0.00000000
    6 H                    1.0000     2.15139100    -1.24210600     0.00000000
    7 C                    6.0000     0.00000000    -1.39679200     0.00000000
    8 H                    1.0000     0.00000000    -2.48421200     0.00000000
    9 C                    6.0000    -1.20965700    -0.69839600     0.00000000
   10 H                    1.0000    -2.15139100    -1.24210600     0.00000000
   11 C                    6.0000    -1.20965700     0.69839600     0.00000000
   12 H                    1.0000    -2.15139100     1.24210600     0.00000000
 
      Atomic Mass 
      ----------- 
 
      C                 12.000000
      H                  1.007825
 

 Effective nuclear repulsion energy (a.u.)     203.1535081119

            Nuclear Dipole moment (a.u.) 
            ----------------------------
        X                 Y               Z
 ---------------- ---------------- ----------------
     0.0000000000     0.0000000000     0.0000000000
 
      Symmetry information
      --------------------
 
 Group name             D2h       
 Group number             26
 Group order               8
 No. of unique centers     4
 
      Symmetry unique atoms
 
     1    2    3    4
 


                                Z-matrix (autoz)
                                -------- 

 Units are Angstrom for bonds and degrees for angles
 
      Type          Name      I     J     K     L     M      Value
      ----------- --------  ----- ----- ----- ----- ----- ----------
    1 Stretch                  1     2                       1.08742
    2 Stretch                  1     3                       1.39679
    3 Stretch                  1    11                       1.39679
    4 Stretch                  3     4                       1.08742
    5 Stretch                  3     5                       1.39679
    6 Stretch                  5     6                       1.08742
    7 Stretch                  5     7                       1.39679
    8 Stretch                  7     8                       1.08742
    9 Stretch                  7     9                       1.39679
   10 Stretch                  9    10                       1.08742
   11 Stretch                  9    11                       1.39679
   12 Stretch                 11    12                       1.08742
   13 Bend                     1     3     4               120.00001
   14 Bend                     1     3     5               120.00001
   15 Bend                     1    11     9               120.00001
   16 Bend                     1    11    12               120.00001
   17 Bend                     2     1     3               120.00001
   18 Bend                     2     1    11               120.00001
   19 Bend                     3     1    11               119.99999
   20 Bend                     3     5     6               119.99998
   21 Bend                     3     5     7               120.00001
   22 Bend                     4     3     5               119.99998
   23 Bend                     5     7     8               120.00001
   24 Bend                     5     7     9               119.99999
   25 Bend                     6     5     7               120.00001
   26 Bend                     7     9    10               120.00001
   27 Bend                     7     9    11               120.00001
   28 Bend                     8     7     9               120.00001
   29 Bend                     9    11    12               119.99998
   30 Bend                    10     9    11               119.99998
   31 Torsion                  1     3     5     6         180.00000
   32 Torsion                  1     3     5     7           0.00000
   33 Torsion                  1    11     9     7           0.00000
   34 Torsion                  1    11     9    10         180.00000
   35 Torsion                  2     1     3     4           0.00000
   36 Torsion                  2     1     3     5         180.00000
   37 Torsion                  2     1    11     9         180.00000
   38 Torsion                  2     1    11    12           0.00000
   39 Torsion                  3     1    11     9           0.00000
   40 Torsion                  3     1    11    12         180.00000
   41 Torsion                  3     5     7     8         180.00000
   42 Torsion                  3     5     7     9           0.00000
   43 Torsion                  4     3     1    11         180.00000
   44 Torsion                  4     3     5     6           0.00000
   45 Torsion                  4     3     5     7         180.00000
   46 Torsion                  5     3     1    11           0.00000
   47 Torsion                  5     7     9    10         180.00000
   48 Torsion                  5     7     9    11           0.00000
   49 Torsion                  6     5     7     8           0.00000
   50 Torsion                  6     5     7     9         180.00000
   51 Torsion                  7     9    11    12         180.00000
   52 Torsion                  8     7     9    10           0.00000
   53 Torsion                  8     7     9    11         180.00000
   54 Torsion                 10     9    11    12           0.00000
 
 
            XYZ format geometry
            -------------------
    12
 geometry
 C                     0.00000000     1.39679200     0.00000000
 H                     0.00000000     2.48421200     0.00000000
 C                     1.20965700     0.69839600     0.00000000
 H                     2.15139100     1.24210600     0.00000000
 C                     1.20965700    -0.69839600     0.00000000
 H                     2.15139100    -1.24210600     0.00000000
 C                     0.00000000    -1.39679200     0.00000000
 H                     0.00000000    -2.48421200     0.00000000
 C                    -1.20965700    -0.69839600     0.00000000
 H                    -2.15139100    -1.24210600     0.00000000
 C                    -1.20965700     0.69839600     0.00000000
 H                    -2.15139100     1.24210600     0.00000000
 
 ==============================================================================
                                internuclear distances
 ------------------------------------------------------------------------------
       center one      |      center two      | atomic units |  angstroms
 ------------------------------------------------------------------------------
    2 H                |   1 C                |     2.05493  |     1.08742
    3 C                |   1 C                |     2.63955  |     1.39679
    4 H                |   3 C                |     2.05493  |     1.08742
    5 C                |   3 C                |     2.63955  |     1.39679
    6 H                |   5 C                |     2.05493  |     1.08742
    7 C                |   5 C                |     2.63955  |     1.39679
    8 H                |   7 C                |     2.05493  |     1.08742
    9 C                |   7 C                |     2.63955  |     1.39679
   10 H                |   9 C                |     2.05493  |     1.08742
   11 C                |   1 C                |     2.63955  |     1.39679
   11 C                |   9 C                |     2.63955  |     1.39679
   12 H                |  11 C                |     2.05493  |     1.08742
 ------------------------------------------------------------------------------
                         number of included internuclear distances:         12
 ==============================================================================



 ==============================================================================
                                 internuclear angles
 ------------------------------------------------------------------------------
        center 1       |       center 2       |       center 3       |  degrees
 ------------------------------------------------------------------------------
    2 H                |   1 C                |   3 C                |   120.00
    2 H                |   1 C                |  11 C                |   120.00
    3 C                |   1 C                |  11 C                |   120.00
    1 C                |   3 C                |   4 H                |   120.00
    1 C                |   3 C                |   5 C                |   120.00
    4 H                |   3 C                |   5 C                |   120.00
    3 C                |   5 C                |   6 H                |   120.00
    3 C                |   5 C                |   7 C                |   120.00
    6 H                |   5 C                |   7 C                |   120.00
    5 C                |   7 C                |   8 H                |   120.00
    5 C                |   7 C                |   9 C                |   120.00
    8 H                |   7 C                |   9 C                |   120.00
    7 C                |   9 C                |  10 H                |   120.00
    7 C                |   9 C                |  11 C                |   120.00
   10 H                |   9 C                |  11 C                |   120.00
    1 C                |  11 C                |   9 C                |   120.00
    1 C                |  11 C                |  12 H                |   120.00
    9 C                |  11 C                |  12 H                |   120.00
 ------------------------------------------------------------------------------
                            number of included internuclear angles:         18
 ==============================================================================



  library name resolved from: environment
  library file name is: </apps/nwchem/data/libraries/>
  
                      Basis "ao basis" -> "" (cartesian)
                      -----
  H (Hydrogen)
  ------------
            Exponent  Coefficients 
       -------------- ---------------------------------------------------------
  1 S  1.87311370E+01  0.033495
  1 S  2.82539437E+00  0.234727
  1 S  6.40121692E-01  0.813757
 
  2 S  1.61277759E-01  1.000000
 
  C (Carbon)
  ----------
            Exponent  Coefficients 
       -------------- ---------------------------------------------------------
  1 S  3.04752488E+03  0.001835
  1 S  4.57369518E+02  0.014037
  1 S  1.03948685E+02  0.068843
  1 S  2.92101553E+01  0.232184
  1 S  9.28666296E+00  0.467941
  1 S  3.16392696E+00  0.362312
 
  2 S  7.86827235E+00 -0.119332
  2 S  1.88128854E+00 -0.160854
  2 S  5.44249258E-01  1.143456
 
  3 P  7.86827235E+00  0.068999
  3 P  1.88128854E+00  0.316424
  3 P  5.44249258E-01  0.744308
 
  4 S  1.68714478E-01  1.000000
 
  5 P  1.68714478E-01  1.000000
 
  6 D  8.00000000E-01  1.000000
 


 Summary of "ao basis" -> "" (cartesian)
 ------------------------------------------------------------------------------
       Tag                 Description            Shells   Functions and Types
 ---------------- ------------------------------  ------  ---------------------
 H                       user specified              2        2   2s
 C                       user specified              6       15   3s2p1d


                                 NWChem SCF Module
                                 -----------------
 
 

  ao basis        = "ao basis"
  functions       =   102
  atoms           =    12
  closed shells   =    21
  open shells     =     0
  charge          =   0.00
  wavefunction    = RHF 
  input vectors   = atomic
  output vectors  = ./benzene_tce_fc.movecs
  use symmetry    = T
  symmetry adapt  = T


 Summary of "ao basis" -> "ao basis" (cartesian)
 ------------------------------------------------------------------------------
       Tag                 Description            Shells   Functions and Types
 ---------------- ------------------------------  ------  ---------------------
 H                       user specified              2        2   2s
 C                       user specified              6       15   3s2p1d


      Symmetry analysis of basis
      --------------------------
 
        ag         23
        au          5
        b1g        16
        b1u         7
        b2g         5
        b2u        23
        b3g         7
        b3u        16
 

 Forming initial guess at       0.2s

 
      Superposition of Atomic Density Guess
      -------------------------------------
 
 Sum of atomic energies:        -228.95091996
 
      Non-variational initial energy
      ------------------------------

 Total energy =    -233.105225
 1-e energy   =    -708.729620
 2-e energy   =     272.470887
 HOMO         =      -0.287820
 LUMO         =       0.009376
 
 
      Symmetry analysis of molecular orbitals - initial
      -------------------------------------------------
 
  Numbering of irreducible representations: 
 
     1 ag          2 au          3 b1g         4 b1u         5 b2g     
     6 b2u         7 b3g         8 b3u     
 
  Orbital symmetries:
 
     1 ag          2 b2u         3 b3u         4 ag          5 b1g     
     6 b2u         7 ag          8 b2u         9 b3u        10 ag      
    11 b1g        12 ag         13 b2u        14 b3u        15 b2u     
    16 b3u        17 b1u        18 b1g        19 ag         20 b3g     
    21 b2g        22 au         23 b1u        24 ag         25 b3g     
    26 b3u        27 b2u        28 b1g        29 ag         30 b2u     
    31 b1g     
 

 Starting SCF solution at       0.3s



 ----------------------------------------------
         Quadratically convergent ROHF

 Convergence threshold     :          1.000E-04
 Maximum no. of iterations :           30
 Final Fock-matrix accuracy:          1.000E-07
 ----------------------------------------------


 Integral file          = ./benzene_tce_fc.aoints.00
 Record size in doubles =  65536        No. of integs per rec  =  43688
 Max. records in memory =      9        Max. records in file   = 267137
 No. of bits per label  =      8        No. of bits per value  =     64


 #quartets = 1.775D+05 #integrals = 2.012D+06 #direct =  0.0% #cached =100.0%


File balance: exchanges=     0  moved=     0  time=   0.0


              iter       energy          gnorm     gmax       time
             ----- ------------------- --------- --------- --------
                 1     -230.6380674366  8.15D-01  2.76D-01      0.2
                 2     -230.6998954737  1.65D-01  5.72D-02      0.2
                 3     -230.7018265023  5.26D-03  1.21D-03      0.2
                 4     -230.7018287540  4.22D-06  1.09D-06      0.3


       Final RHF  results 
       ------------------ 

         Total SCF energy =   -230.701828753964
      One-electron energy =   -712.851727143630
      Two-electron energy =    278.996390277785
 Nuclear repulsion energy =    203.153508111882

        Time for solution =      0.1s


 
       Symmetry analysis of molecular orbitals - final
       -----------------------------------------------
 
  Numbering of irreducible representations: 
 
     1 ag          2 au          3 b1g         4 b1u         5 b2g     
     6 b2u         7 b3g         8 b3u     
 
  Orbital symmetries:
 
     1 ag          2 b3u         3 b2u         4 b1g         5 ag      
     6 b2u         7 ag          8 b2u         9 b3u        10 ag      
    11 b1g        12 ag         13 b2u        14 b3u        15 b2u     
    16 b3u        17 b1u        18 ag         19 b1g        20 b3g     
    21 b2g        22 au         23 b1u        24 ag         25 b3u     
    26 b2u        27 b1g        28 ag         29 b2u        30 b3g     
    31 b1g     
 
             Final eigenvalues
             -----------------

              1      
    1  -11.2345
    2  -11.2340
    3  -11.2340
    4  -11.2328
    5  -11.2328
    6  -11.2322
    7   -1.1416
    8   -1.0071
    9   -1.0071
   10   -0.8165
   11   -0.8165
   12   -0.7011
   13   -0.6381
   14   -0.6103
   15   -0.5810
   16   -0.5810
   17   -0.4940
   18   -0.4883
   19   -0.4883
   20   -0.3291
   21   -0.3291
   22    0.1468
   23    0.1468
   24    0.2328
   25    0.2922
   26    0.2922
   27    0.3303
   28    0.3303
   29    0.3343
   30    0.3654
   31    0.4707
 
                       ROHF Final Molecular Orbital Analysis
                       -------------------------------------
 
 Vector    7  Occ=2.000000D+00  E=-1.141611D+00  Symmetry=ag
              MO Center=  2.7D-17, -1.8D-17,  2.0D-34, r^2= 2.1D+00
   Bfn.  Coefficient  Atom+Function         Bfn.  Coefficient  Atom+Function  
  ----- ------------  ---------------      ----- ------------  ---------------
     2      0.175180   1 C  s                19      0.175180   3 C  s         
    36      0.175180   5 C  s                53      0.175180   7 C  s         
    70      0.175180   9 C  s                87      0.175180  11 C  s         
 
 Vector    8  Occ=2.000000D+00  E=-1.007134D+00  Symmetry=b2u
              MO Center=  2.6D-17,  1.5D-16, -1.7D-34, r^2= 2.8D+00
   Bfn.  Coefficient  Atom+Function         Bfn.  Coefficient  Atom+Function  
  ----- ------------  ---------------      ----- ------------  ---------------
     2      0.247113   1 C  s                53     -0.247113   7 C  s         
     6      0.192567   1 C  s                57     -0.192567   7 C  s         
 
 Vector    9  Occ=2.000000D+00  E=-1.007134D+00  Symmetry=b3u
              MO Center=  1.2D-16, -1.1D-16, -6.1D-17, r^2= 2.8D+00
   Bfn.  Coefficient  Atom+Function         Bfn.  Coefficient  Atom+Function  
  ----- ------------  ---------------      ----- ------------  ---------------
    19      0.214006   3 C  s                36      0.214006   5 C  s         
    70     -0.214006   9 C  s                87     -0.214006  11 C  s         
    23      0.166767   3 C  s                40      0.166767   5 C  s         
    74     -0.166767   9 C  s                91     -0.166767  11 C  s         
 
 Vector   10  Occ=2.000000D+00  E=-8.165277D-01  Symmetry=ag
              MO Center= -4.6D-17, -7.3D-17, -2.0D-33, r^2= 3.7D+00
   Bfn.  Coefficient  Atom+Function         Bfn.  Coefficient  Atom+Function  
  ----- ------------  ---------------      ----- ------------  ---------------
     2      0.199958   1 C  s                53      0.199958   7 C  s         
     6      0.169039   1 C  s                57      0.169039   7 C  s         
 
 Vector   11  Occ=2.000000D+00  E=-8.165276D-01  Symmetry=b1g
              MO Center= -6.3D-18,  4.4D-17, -8.6D-18, r^2= 3.7D+00
   Bfn.  Coefficient  Atom+Function         Bfn.  Coefficient  Atom+Function  
  ----- ------------  ---------------      ----- ------------  ---------------
     3      0.205142   1 C  px               54     -0.205142   7 C  px        
    19      0.173169   3 C  s                36     -0.173169   5 C  s         
    70      0.173169   9 C  s                87     -0.173169  11 C  s         
 
 Vector   12  Occ=2.000000D+00  E=-7.011203D-01  Symmetry=ag
              MO Center=  1.9D-16, -1.0D-16, -9.3D-17, r^2= 4.2D+00
   Bfn.  Coefficient  Atom+Function         Bfn.  Coefficient  Atom+Function  
  ----- ------------  ---------------      ----- ------------  ---------------
     4      0.193681   1 C  py               55     -0.193681   7 C  py        
    20      0.167732   3 C  px               37      0.167732   5 C  px        
    71     -0.167732   9 C  px               88     -0.167732  11 C  px        
 
 Vector   13  Occ=2.000000D+00  E=-6.380738D-01  Symmetry=b2u
              MO Center=  2.0D-16, -4.9D-17,  1.9D-33, r^2= 5.3D+00
   Bfn.  Coefficient  Atom+Function         Bfn.  Coefficient  Atom+Function  
  ----- ------------  ---------------      ----- ------------  ---------------
    16      0.135975   2 H  s                33     -0.135974   4 H  s         
    50      0.135974   6 H  s                67     -0.135975   8 H  s         
    84      0.135974  10 H  s               101     -0.135974  12 H  s         
     4      0.131268   1 C  py               55      0.131268   7 C  py        
     8      0.129935   1 C  py               59      0.129935   7 C  py        
 
 Vector   14  Occ=2.000000D+00  E=-6.102689D-01  Symmetry=b3u
              MO Center= -9.0D-17,  2.8D-18, -7.3D-33, r^2= 2.7D+00
   Bfn.  Coefficient  Atom+Function         Bfn.  Coefficient  Atom+Function  
  ----- ------------  ---------------      ----- ------------  ---------------
     3      0.271918   1 C  px               54      0.271918   7 C  px        
    21      0.235488   3 C  py               38     -0.235488   5 C  py        
    72      0.235488   9 C  py               89     -0.235488  11 C  py        
 
 Vector   15  Occ=2.000000D+00  E=-5.810055D-01  Symmetry=b2u
              MO Center=  5.1D-17, -8.3D-17,  2.6D-21, r^2= 4.1D+00
   Bfn.  Coefficient  Atom+Function         Bfn.  Coefficient  Atom+Function  
  ----- ------------  ---------------      ----- ------------  ---------------
     4      0.293174   1 C  py               55      0.293174   7 C  py        
    16      0.164542   2 H  s                20      0.164070   3 C  px        
    37     -0.164070   5 C  px               67     -0.164542   8 H  s         
    71      0.164070   9 C  px               88     -0.164070  11 C  px        
 
 Vector   16  Occ=2.000000D+00  E=-5.810053D-01  Symmetry=b3u
              MO Center=  1.1D-16, -1.0D-16,  8.6D-33, r^2= 4.1D+00
   Bfn.  Coefficient  Atom+Function         Bfn.  Coefficient  Atom+Function  
  ----- ------------  ---------------      ----- ------------  ---------------
    20      0.198448   3 C  px               37      0.198448   5 C  px        
    71      0.198448   9 C  px               88      0.198448  11 C  px        
    21      0.164070   3 C  py               38     -0.164070   5 C  py        
    72      0.164070   9 C  py               89     -0.164070  11 C  py        
 
 Vector   17  Occ=2.000000D+00  E=-4.940083D-01  Symmetry=b1u
              MO Center= -8.1D-17, -3.1D-18,  2.7D-17, r^2= 2.8D+00
   Bfn.  Coefficient  Atom+Function         Bfn.  Coefficient  Atom+Function  
  ----- ------------  ---------------      ----- ------------  ---------------
     5      0.209737   1 C  pz               22      0.209737   3 C  pz        
    39      0.209737   5 C  pz               56      0.209737   7 C  pz        
    73      0.209737   9 C  pz               90      0.209737  11 C  pz        
 
 Vector   18  Occ=2.000000D+00  E=-4.883025D-01  Symmetry=ag
              MO Center=  1.6D-16,  2.8D-16, -4.4D-28, r^2= 4.1D+00
   Bfn.  Coefficient  Atom+Function         Bfn.  Coefficient  Atom+Function  
  ----- ------------  ---------------      ----- ------------  ---------------
    21      0.247514   3 C  py               38     -0.247514   5 C  py        
    72     -0.247514   9 C  py               89      0.247514  11 C  py        
     4     -0.222444   1 C  py               55      0.222444   7 C  py        
    16     -0.162716   2 H  s                67     -0.162716   8 H  s         
 
 Vector   19  Occ=2.000000D+00  E=-4.883024D-01  Symmetry=b1g
              MO Center=  7.0D-17, -6.2D-17, -4.9D-34, r^2= 4.1D+00
   Bfn.  Coefficient  Atom+Function         Bfn.  Coefficient  Atom+Function  
  ----- ------------  ---------------      ----- ------------  ---------------
     3      0.255870   1 C  px               54     -0.255870   7 C  px        
    20     -0.230800   3 C  px               37      0.230800   5 C  px        
    71      0.230800   9 C  px               88     -0.230800  11 C  px        
 
 Vector   20  Occ=2.000000D+00  E=-3.291359D-01  Symmetry=b3g
              MO Center=  2.2D-17, -7.3D-17, -6.2D-22, r^2= 3.0D+00
   Bfn.  Coefficient  Atom+Function         Bfn.  Coefficient  Atom+Function  
  ----- ------------  ---------------      ----- ------------  ---------------
     5      0.314052   1 C  pz               56     -0.314052   7 C  pz        
     9      0.267536   1 C  pz               60     -0.267536   7 C  pz        
    22      0.157026   3 C  pz               39     -0.157026   5 C  pz        
    73     -0.157026   9 C  pz               90      0.157026  11 C  pz        
 
 Vector   21  Occ=2.000000D+00  E=-3.291358D-01  Symmetry=b2g
              MO Center= -1.1D-17,  2.1D-18,  1.6D-18, r^2= 3.0D+00
   Bfn.  Coefficient  Atom+Function         Bfn.  Coefficient  Atom+Function  
  ----- ------------  ---------------      ----- ------------  ---------------
    22      0.271977   3 C  pz               39      0.271977   5 C  pz        
    73     -0.271977   9 C  pz               90     -0.271977  11 C  pz        
    26      0.231693   3 C  pz               43      0.231693   5 C  pz        
    77     -0.231693   9 C  pz               94     -0.231693  11 C  pz        
 
 Vector   22  Occ=0.000000D+00  E= 1.467713D-01  Symmetry=au
              MO Center= -4.4D-17, -8.2D-17,  1.1D-17, r^2= 3.6D+00
   Bfn.  Coefficient  Atom+Function         Bfn.  Coefficient  Atom+Function  
  ----- ------------  ---------------      ----- ------------  ---------------
    26      0.491770   3 C  pz               43     -0.491770   5 C  pz        
    77      0.491770   9 C  pz               94     -0.491770  11 C  pz        
    22      0.268606   3 C  pz               39     -0.268606   5 C  pz        
    73      0.268606   9 C  pz               90     -0.268606  11 C  pz        
 
 Vector   23  Occ=0.000000D+00  E= 1.467714D-01  Symmetry=b1u
              MO Center=  1.3D-16,  1.2D-15,  2.7D-16, r^2= 3.6D+00
   Bfn.  Coefficient  Atom+Function         Bfn.  Coefficient  Atom+Function  
  ----- ------------  ---------------      ----- ------------  ---------------
     9      0.567847   1 C  pz               60      0.567847   7 C  pz        
     5      0.310160   1 C  pz               56      0.310160   7 C  pz        
    26     -0.283924   3 C  pz               43     -0.283924   5 C  pz        
    77     -0.283924   9 C  pz               94     -0.283924  11 C  pz        
    22     -0.155080   3 C  pz               39     -0.155080   5 C  pz        
 
 Vector   24  Occ=0.000000D+00  E= 2.328209D-01  Symmetry=ag
              MO Center= -3.5D-16,  2.8D-17, -3.1D-20, r^2= 8.5D+00
   Bfn.  Coefficient  Atom+Function         Bfn.  Coefficient  Atom+Function  
  ----- ------------  ---------------      ----- ------------  ---------------
    17      0.776041   2 H  s                34      0.776042   4 H  s         
    51      0.776042   6 H  s                68      0.776041   8 H  s         
    85      0.776042  10 H  s               102      0.776042  12 H  s         
     6     -0.552297   1 C  s                23     -0.552298   3 C  s         
    40     -0.552298   5 C  s                57     -0.552297   7 C  s         
 
 Vector   25  Occ=0.000000D+00  E= 2.921620D-01  Symmetry=b3u
              MO Center= -1.3D-15, -1.2D-16,  8.6D-19, r^2= 9.4D+00
   Bfn.  Coefficient  Atom+Function         Bfn.  Coefficient  Atom+Function  
  ----- ------------  ---------------      ----- ------------  ---------------
    34      1.152712   4 H  s                51      1.152712   6 H  s         
    85     -1.152712  10 H  s               102     -1.152712  12 H  s         
    23     -0.967180   3 C  s                40     -0.967180   5 C  s         
    74      0.967180   9 C  s                91      0.967180  11 C  s         
    24     -0.436622   3 C  px               41     -0.436622   5 C  px        
 
 Vector   26  Occ=0.000000D+00  E= 2.921621D-01  Symmetry=b2u
              MO Center=  7.7D-16,  1.3D-15,  1.5D-20, r^2= 9.4D+00
   Bfn.  Coefficient  Atom+Function         Bfn.  Coefficient  Atom+Function  
  ----- ------------  ---------------      ----- ------------  ---------------
    17      1.331038   2 H  s                68     -1.331038   8 H  s         
     6     -1.116805   1 C  s                57      1.116805   7 C  s         
     8     -0.682292   1 C  py               59     -0.682292   7 C  py        
    34      0.665519   4 H  s                51     -0.665519   6 H  s         
    85     -0.665519  10 H  s               102      0.665519  12 H  s         
 
 Vector   27  Occ=0.000000D+00  E= 3.303384D-01  Symmetry=b1g
              MO Center=  1.3D-15,  2.2D-15, -5.8D-22, r^2= 9.4D+00
   Bfn.  Coefficient  Atom+Function         Bfn.  Coefficient  Atom+Function  
  ----- ------------  ---------------      ----- ------------  ---------------
    23      1.321846   3 C  s                40     -1.321846   5 C  s         
    74      1.321846   9 C  s                91     -1.321846  11 C  s         
    34     -1.227664   4 H  s                51      1.227664   6 H  s         
    85     -1.227664  10 H  s               102      1.227664  12 H  s         
    24      0.670031   3 C  px               41     -0.670031   5 C  px        
 
 Vector   28  Occ=0.000000D+00  E= 3.303385D-01  Symmetry=ag
              MO Center= -4.2D-17, -4.1D-16, -1.6D-17, r^2= 9.4D+00
   Bfn.  Coefficient  Atom+Function         Bfn.  Coefficient  Atom+Function  
  ----- ------------  ---------------      ----- ------------  ---------------
     6      1.526338   1 C  s                57      1.526338   7 C  s         
    17     -1.417586   2 H  s                68     -1.417586   8 H  s         
    23     -0.763168   3 C  s                40     -0.763168   5 C  s         
    74     -0.763168   9 C  s                91     -0.763168  11 C  s         
     8      0.753670   1 C  py               59     -0.753670   7 C  py        
 
 Vector   29  Occ=0.000000D+00  E= 3.342548D-01  Symmetry=b2u
              MO Center=  4.4D-16,  1.5D-15,  7.5D-31, r^2= 1.1D+01
   Bfn.  Coefficient  Atom+Function         Bfn.  Coefficient  Atom+Function  
  ----- ------------  ---------------      ----- ------------  ---------------
     8      1.629540   1 C  py               59      1.629540   7 C  py        
    24     -1.411222   3 C  px               41      1.411222   5 C  px        
    75     -1.411222   9 C  px               92      1.411222  11 C  px        
    17     -1.385508   2 H  s                34      1.385505   4 H  s         
    51     -1.385505   6 H  s                68      1.385508   8 H  s         
 
 Vector   30  Occ=0.000000D+00  E= 3.654388D-01  Symmetry=b3g
              MO Center= -9.7D-17, -1.3D-15,  2.1D-19, r^2= 4.0D+00
   Bfn.  Coefficient  Atom+Function         Bfn.  Coefficient  Atom+Function  
  ----- ------------  ---------------      ----- ------------  ---------------
     9      0.675556   1 C  pz               26     -0.675556   3 C  pz        
    43      0.675556   5 C  pz               60     -0.675556   7 C  pz        
    77      0.675556   9 C  pz               94     -0.675556  11 C  pz        
     5      0.236759   1 C  pz               22     -0.236759   3 C  pz        
    39      0.236759   5 C  pz               56     -0.236759   7 C  pz        
 
 Vector   31  Occ=0.000000D+00  E= 4.707340D-01  Symmetry=b1g
              MO Center= -1.5D-15,  4.5D-16,  9.0D-21, r^2= 5.7D+00
   Bfn.  Coefficient  Atom+Function         Bfn.  Coefficient  Atom+Function  
  ----- ------------  ---------------      ----- ------------  ---------------
    23      1.883600   3 C  s                40     -1.883600   5 C  s         
    74      1.883600   9 C  s                91     -1.883600  11 C  s         
    25     -1.145060   3 C  py               42     -1.145060   5 C  py        
    76      1.145060   9 C  py               93      1.145060  11 C  py        
    24     -1.033318   3 C  px               41      1.033318   5 C  px        
 
 Vector   32  Occ=0.000000D+00  E= 4.707342D-01  Symmetry=ag
              MO Center= -8.5D-16,  4.0D-15, -3.0D-17, r^2= 5.7D+00
   Bfn.  Coefficient  Atom+Function         Bfn.  Coefficient  Atom+Function  
  ----- ------------  ---------------      ----- ------------  ---------------
     6      2.174996   1 C  s                57      2.174996   7 C  s         
     8     -1.694420   1 C  py               59      1.694420   7 C  py        
    24      1.145062   3 C  px               41      1.145062   5 C  px        
    75     -1.145062   9 C  px               92     -1.145062  11 C  px        
    23     -1.087499   3 C  s                40     -1.087499   5 C  s         
 
 Vector   33  Occ=0.000000D+00  E= 4.956632D-01  Symmetry=b2u
              MO Center= -3.5D-15,  3.3D-15, -6.2D-23, r^2= 5.2D+00
   Bfn.  Coefficient  Atom+Function         Bfn.  Coefficient  Atom+Function  
  ----- ------------  ---------------      ----- ------------  ---------------
     6      2.094558   1 C  s                57     -2.094558   7 C  s         
    25     -1.689682   3 C  py               42     -1.689682   5 C  py        
    76     -1.689682   9 C  py               93     -1.689682  11 C  py        
    23      1.047275   3 C  s                40     -1.047275   5 C  s         
    74     -1.047275   9 C  s                91      1.047275  11 C  s         
 
 Vector   34  Occ=0.000000D+00  E= 4.956633D-01  Symmetry=b3u
              MO Center=  2.1D-15,  1.0D-15, -1.9D-21, r^2= 5.2D+00
   Bfn.  Coefficient  Atom+Function         Bfn.  Coefficient  Atom+Function  
  ----- ------------  ---------------      ----- ------------  ---------------
     7      2.168730   1 C  px               58      2.168730   7 C  px        
    23     -1.813939   3 C  s                40     -1.813939   5 C  s         
    74      1.813939   9 C  s                91      1.813939  11 C  s         
    25     -0.829732   3 C  py               42      0.829732   5 C  py        
    76     -0.829732   9 C  py               93      0.829732  11 C  py        
 
 Vector   35  Occ=0.000000D+00  E= 6.602377D-01  Symmetry=b3u
              MO Center=  6.6D-16,  8.4D-16, -4.4D-24, r^2= 5.2D+00
   Bfn.  Coefficient  Atom+Function         Bfn.  Coefficient  Atom+Function  
  ----- ------------  ---------------      ----- ------------  ---------------
     7      0.502705   1 C  px               58      0.502705   7 C  px        
    25      0.435356   3 C  py               42     -0.435356   5 C  py        
    76      0.435356   9 C  py               93     -0.435356  11 C  py        
     3     -0.328468   1 C  px               54     -0.328468   7 C  px        
    21     -0.284462   3 C  py               38      0.284462   5 C  py        
 

 center of mass
 --------------
 x =  -0.00000000 y =  -0.00000000 z =   0.00000000

 moments of inertia (a.u.)
 ------------------
         317.452630833727          -0.000000000000           0.000000000000
          -0.000000000000         317.452501842210           0.000000000000
           0.000000000000           0.000000000000         634.905132675937
 
  Mulliken analysis of the total density
  --------------------------------------

    Atom       Charge   Shell Charges
 -----------   ------   -------------------------------------------------------
    1 C    6     6.20   2.00  0.67  1.99  0.49  1.00  0.06
    2 H    1     0.80   0.52  0.28
    3 C    6     6.20   2.00  0.67  1.99  0.49  1.00  0.06
    4 H    1     0.80   0.52  0.28
    5 C    6     6.20   2.00  0.67  1.99  0.49  1.00  0.06
    6 H    1     0.80   0.52  0.28
    7 C    6     6.20   2.00  0.67  1.99  0.49  1.00  0.06
    8 H    1     0.80   0.52  0.28
    9 C    6     6.20   2.00  0.67  1.99  0.49  1.00  0.06
   10 H    1     0.80   0.52  0.28
   11 C    6     6.20   2.00  0.67  1.99  0.49  1.00  0.06
   12 H    1     0.80   0.52  0.28
 
       Multipole analysis of the density wrt the origin
       ------------------------------------------------
 
     L   x y z        total         open         nuclear
     -   - - -        -----         ----         -------
     0   0 0 0     -0.000000      0.000000     42.000000
 
     1   1 0 0     -0.000000      0.000000      0.000000
     1   0 1 0      0.000000      0.000000      0.000000
     1   0 0 1      0.000000      0.000000      0.000000
 
     2   2 0 0    -23.321733      0.000000    191.524801
     2   1 1 0     -0.000000      0.000000      0.000000
     2   1 0 1      0.000000      0.000000      0.000000
     2   0 2 0    -23.321730      0.000000    191.524856
     2   0 1 1      0.000000      0.000000      0.000000
     2   0 0 2    -29.722622      0.000000      0.000000
 

 Parallel integral file used      52 records with       0 large values

                   NWChem Extensible Many-Electron Theory Module
                   ---------------------------------------------
 
              ======================================================
                   This portion of the program was automatically
                  generated by a Tensor Contraction Engine (TCE).
                  The development of this portion of the program
                 and TCE was supported by US Department of Energy,
                Office of Science, Office of Basic Energy Science.
                      TCE is a product of Battelle and PNNL.
              Please cite: S.Hirata, J.Phys.Chem.A 107, 9887 (2003).
              ======================================================
 
            General Information
            -------------------
      Number of processors :    11
         Wavefunction type : Restricted Hartree-Fock
          No. of electrons :    42
           Alpha electrons :    21
            Beta electrons :    21
           No. of orbitals :   204
            Alpha orbitals :   102
             Beta orbitals :   102
        Alpha frozen cores :     6
         Beta frozen cores :     6
     Alpha frozen virtuals :     0
      Beta frozen virtuals :     0
         Spin multiplicity : singlet 
    Number of AO functions :   102
       Number of AO shells :    48
        Use of symmetry is : on 
      Symmetry adaption is : on 
         Schwarz screening : 0.10D-09
 
          Correlation Information
          -----------------------
          Calculation type : Coupled-cluster singles & doubles w/ perturbation           
   Perturbative correction : (T)                                                         
            Max iterations :      100
        Residual threshold : 0.10D-06
     T(0) DIIS level shift : 0.00D+00
     L(0) DIIS level shift : 0.00D+00
     T(1) DIIS level shift : 0.00D+00
     L(1) DIIS level shift : 0.00D+00
     T(R) DIIS level shift : 0.00D+00
     T(I) DIIS level shift : 0.00D+00
   CC-T/L Amplitude update :  5-th order DIIS
                I/O scheme : Global Array Library
        L-threshold :  0.10D-06
        EOM-threshold :  0.10D-06
 no EOMCCSD initial starts read in
 TCE RESTART OPTIONS
 READ_INT:   F
 WRITE_INT:  F
 READ_TA:    F
 WRITE_TA:   F
 READ_XA:    F
 WRITE_XA:   F
 READ_IN3:   F
 WRITE_IN3:  F
 SLICE:      F
 D4D5:       F
 quantumc:   F
 qrotation:  F
 pwtce:      F
 qducc:      F
 nacto:                          0
 nrotv:                          0
 nrot:                           0
 
            Memory Information
            ------------------
          Available GA space size is    1441781596 doubles
          Available MA space size is     131067028 doubles
 
 Maximum block size        24 doubles

 tile_dim =     18

 Block   Spin    Irrep     Size     Offset   Alpha
 -------------------------------------------------
   1    alpha     ag     4 doubles       0       1
   2    alpha     b1g    2 doubles       4       2
   3    alpha     b1u    1 doubles       6       3
   4    alpha     b2g    1 doubles       7       4
   5    alpha     b2u    3 doubles       8       5
   6    alpha     b3g    1 doubles      11       6
   7    alpha     b3u    3 doubles      12       7
   8    beta      ag     4 doubles      15       1
   9    beta      b1g    2 doubles      19       2
  10    beta      b1u    1 doubles      21       3
  11    beta      b2g    1 doubles      22       4
  12    beta      b2u    3 doubles      23       5
  13    beta      b3g    1 doubles      26       6
  14    beta      b3u    3 doubles      27       7
  15    alpha     ag    17 doubles      30      15
  16    alpha     au     5 doubles      47      16
  17    alpha     b1g   13 doubles      52      17
  18    alpha     b1u    6 doubles      65      18
  19    alpha     b2g    4 doubles      71      19
  20    alpha     b2u   18 doubles      75      20
  21    alpha     b3g    6 doubles      93      21
  22    alpha     b3u   12 doubles      99      22
  23    beta      ag    17 doubles     111      15
  24    beta      au     5 doubles     128      16
  25    beta      b1g   13 doubles     133      17
  26    beta      b1u    6 doubles     146      18
  27    beta      b2g    4 doubles     152      19
  28    beta      b2u   18 doubles     156      20
  29    beta      b3g    6 doubles     174      21
  30    beta      b3u   12 doubles     180      22

 Global array virtual files algorithm will be used

 Parallel file system coherency ......... OK

 Integral file          = ./benzene_tce_fc.aoints.00
 Record size in doubles =  65536        No. of integs per rec  =  43688
 Max. records in memory =      9        Max. records in file   = 267133
 No. of bits per label  =      8        No. of bits per value  =     64


 #quartets = 6.616D+05 #integrals = 7.338D+06 #direct =  0.0% #cached =100.0%


File balance: exchanges=     4  moved=    19  time=   0.0

 
 Fock matrix recomputed
 1-e file size   =             1480
 1-e file name   = ./benzene_tce_fc.f1
 Cpu & wall time / sec            0.1            0.1
 
 tce_ao2e: fast2e=1
 half-transformed integrals in memory
 
 2-e (intermediate) file size =       203002848
 2-e (intermediate) file name = ./benzene_tce_fc.v2i
 Cpu & wall time / sec            1.2            1.3
 
 tce_mo2e: fast2e=1
 2-e integrals stored in memory
 
 2-e file size   =         15202160
 2-e file name   = ./benzene_tce_fc.v2
 Cpu & wall time / sec            1.1            1.3
 T1-number-of-tasks                     7
 
 t1 file size   =              200
 t1 file name   = ./benzene_tce_fc.t1
 t1 file handle =       -999
 T2-number-of-boxes                   532
 
 t2 file size   =           282118
 t2 file name   = ./benzene_tce_fc.t2
 t2 file handle =       -996
CCSD iterations
 ---------------------------------------------------------
 Iter          Residuum       Correlation     Cpu    Wall 
 ---------------------------------------------------------
NEW TASK SCHEDULING
CCSD_T1_NTS --- OK
CCSD_T2_NTS --- OK
    1   0.2147047766666  -0.7555262590683     0.1     0.1
    2   0.0614593606289  -0.7703138520769     0.1     0.1
    3   0.0247822841740  -0.7878998886607     0.1     0.1
    4   0.0118242410403  -0.7900305153658     0.1     0.1
    5   0.0061766994215  -0.7918879604276     0.1     0.1
 MICROCYCLE DIIS UPDATE:                     5                     5
    6   0.0017644145986  -0.7928187677974     0.1     0.1
    7   0.0007477245059  -0.7930698607009     0.1     0.1
    8   0.0003788702326  -0.7930517173594     0.1     0.1
    9   0.0002069946624  -0.7930642881770     0.1     0.1
   10   0.0001162945803  -0.7930698815202     0.1     0.1
 MICROCYCLE DIIS UPDATE:                    10                     5
   11   0.0000207170420  -0.7930777547505     0.1     0.1
   12   0.0000071269301  -0.7930802748340     0.1     0.1
   13   0.0000031685798  -0.7930815742184     0.1     0.1
   14   0.0000015470171  -0.7930818628179     0.1     0.1
   15   0.0000007992338  -0.7930820375899     0.1     0.1
 MICROCYCLE DIIS UPDATE:                    15                     5
   16   0.0000002437846  -0.7930821508833     0.1     0.1
   17   0.0000001083026  -0.7930821858559     0.1     0.1
   18   0.0000000565121  -0.7930821839480     0.1     0.1
 -----------------------------------------------------------------
 Iterations converged
 CCSD correlation energy / hartree =        -0.793082183948039
 CCSD total energy / hartree       =      -231.494910937911925

 Singles contributions

 Doubles contributions
 Saving T1 now...
      x1_restart_save filename: ./benzene_tce_fc.t1_copy                                                        
                                                         x1_restart_save finished
 Saving T2 now...
      x2_restart_save filename: ./benzene_tce_fc.t2_copy                                                        
                                                         x2_restart_save finished
 CCSD(T)
 Using plain CCSD(T) code
             total no. of tasks         8316
 total no. of tasks / no. procs          756
                         wl_min           64           2.0
                         wl_max       352512           8.4
        thresh for no. of tasks         8316
0task   435  done    5%  at            0.2 sec, (size)^1/6=       5.5
0task   864  done   10%  at            0.3 sec, (size)^1/6=       4.4
0task  1274  done   15%  at            0.3 sec, (size)^1/6=       4.8
0task  1670  done   20%  at            0.3 sec, (size)^1/6=       4.2
0task  2090  done   25%  at            0.3 sec, (size)^1/6=       4.9
0task  2495  done   30%  at            0.3 sec, (size)^1/6=       2.3
0task  2919  done   35%  at            0.3 sec, (size)^1/6=       5.1
0task  3335  done   40%  at            0.3 sec, (size)^1/6=       3.1
0task  3752  done   45%  at            0.4 sec, (size)^1/6=       4.8
0task  4170  done   50%  at            0.4 sec, (size)^1/6=       4.0
0task  4585  done   55%  at            0.4 sec, (size)^1/6=       3.1
0task  4998  done   60%  at            0.4 sec, (size)^1/6=       4.5
0task  5443  done   65%  at            0.4 sec, (size)^1/6=       4.2
0task  5830  done   70%  at            0.4 sec, (size)^1/6=       3.1
0task  6245  done   75%  at            0.4 sec, (size)^1/6=       5.0
0task  6660  done   80%  at            0.4 sec, (size)^1/6=       3.3
0task  7074  done   85%  at            0.4 sec, (size)^1/6=       3.2
0task  7485  done   90%  at            0.5 sec, (size)^1/6=       3.3
0task  7947  done   95%  at            0.5 sec, (size)^1/6=       4.5
 
 CCSD[T]  correction energy / hartree =        -0.037005428261888
 CCSD[T] correlation energy / hartree =        -0.830087612209928
 CCSD[T] total energy / hartree       =      -231.531916366173817
 CCSD(T)  correction energy / hartree =        -0.035827537228965
 CCSD(T) correlation energy / hartree =        -0.828909721177004
 CCSD(T) total energy / hartree       =      -231.530738475140879
 Cpu & wall time / sec            0.5            0.5

------------------------------------------------------------
EAF file 0: "./benzene_tce_fc.aoints.00" size=3670016 bytes
------------------------------------------------------------
               write      read    awrite     aread      wait
               -----      ----    ------     -----      ----
     calls:       13         1         0         5         5
   data(b): 6.82e+06  5.24e+05  0.00e+00  2.62e+06
   time(s): 0.00e+00  0.00e+00  0.00e+00  0.00e+00  0.00e+00
rate(mb/s): 0.00e+00  0.00e+00
------------------------------------------------------------


 Parallel integral file used     172 records with       0 large values


 Task  times  cpu:        4.6s     wall:        5.6s
 
 
                                NWChem Input Module
                                -------------------
 
 
 Summary of allocated global arrays
-----------------------------------
  No active global arrays


MA_summarize_allocated_blocks: starting scan ...
MA_summarize_allocated_blocks: scan completed: 0 heap blocks, 0 stack blocks
MA usage statistics:

	allocation statistics:
					      heap	     stack
					      ----	     -----
	current number of blocks	         0	         0
	maximum number of blocks	        18	        36
	current total bytes		         0	         0
	maximum total bytes		   4755040	  89019752
	maximum total K-bytes		      4756	     89020
	maximum total M-bytes		         5	        90
 
 
                                     CITATION
                                     --------
                Please cite the following reference when publishing
                           results obtained with NWChem:
 
          E. Apra, E. J. Bylaska, W. A. de Jong, N. Govind, K. Kowalski,
       T. P. Straatsma, M. Valiev, H. J. J. van Dam, Y. Alexeev, J. Anchell,
       V. Anisimov, F. W. Aquino, R. Atta-Fynn, J. Autschbach, N. P. Bauman,
     J. C. Becca, D. E. Bernholdt, K. Bhaskaran-Nair, S. Bogatko, P. Borowski,
         J. Boschen, J. Brabec, A. Bruner, E. Cauet, Y. Chen, G. N. Chuev,
      C. J. Cramer, J. Daily, M. J. O. Deegan, T. H. Dunning Jr., M. Dupuis,
   K. G. Dyall, G. I. Fann, S. A. Fischer, A. Fonari, H. Fruchtl, L. Gagliardi,
      J. Garza, N. Gawande, S. Ghosh, K. Glaesemann, A. W. Gotz, J. Hammond,
       V. Helms, E. D. Hermes, K. Hirao, S. Hirata, M. Jacquelin, L. Jensen,
   B. G. Johnson, H. Jonsson, R. A. Kendall, M. Klemm, R. Kobayashi, V. Konkov,
      S. Krishnamoorthy, M. Krishnan, Z. Lin, R. D. Lins, R. J. Littlefield,
      A. J. Logsdail, K. Lopata, W. Ma, A. V. Marenich, J. Martin del Campo,
   D. Mejia-Rodriguez, J. E. Moore, J. M. Mullin, T. Nakajima, D. R. Nascimento,
    J. A. Nichols, P. J. Nichols, J. Nieplocha, A. Otero-de-la-Roza, B. Palmer,
    A. Panyala, T. Pirojsirikul, B. Peng, R. Peverati, J. Pittner, L. Pollack,
   R. M. Richard, P. Sadayappan, G. C. Schatz, W. A. Shelton, D. W. Silverstein,
   D. M. A. Smith, T. A. Soares, D. Song, M. Swart, H. L. Taylor, G. S. Thomas,
            V. Tipparaju, D. G. Truhlar, K. Tsemekhman, T. Van Voorhis,
      A. Vazquez-Mayagoitia, P. Verma, O. Villa, A. Vishnu, K. D. Vogiatzis,
        D. Wang, J. H. Weare, M. J. Williamson, T. L. Windus, K. Wolinski,
        A. T. Wong, Q. Wu, C. Yang, Q. Yu, M. Zacharias, Z. Zhang, Y. Zhao,
                                and R. J. Harrison
                        "NWChem: Past, present, and future
                         J. Chem. Phys. 152, 184102 (2020)
                               doi:10.1063/5.0004997
 
                                      AUTHORS
                                      -------
  E. Apra, E. J. Bylaska, N. Govind, K. Kowalski, M. Valiev, D. Mejia-Rodriguez,
       A. Kunitsa, N. P. Bauman, A. Panyala, W. A. de Jong, T. P. Straatsma,
   H. J. J. van Dam, D. Wang, T. L. Windus, J. Hammond, J. Autschbach, A. Woods,
    K. Bhaskaran-Nair, J. Brabec, K. Lopata, S. A. Fischer, S. Krishnamoorthy,
     M. Jacquelin, W. Ma, M. Klemm, O. Villa, Y. Chen, V. Anisimov, F. Aquino,
     S. Hirata, M. T. Hackler, E. Hermes, L. Jensen, J. E. Moore, J. C. Becca,
      V. Konjkov, T. Risthaus, M. Malagoli, A. Marenich, A. Otero-de-la-Roza,
        J. Mullin, P. Nichols, R. Peverati, J. Pittner, Y. Zhao, P.-D. Fan,
        A. Fonari, M. J. Williamson, R. J. Harrison, J. R. Rehr, M. Dupuis,
     D. Silverstein, D. M. A. Smith, J. Nieplocha, V. Tipparaju, M. Krishnan,
     B. E. Van Kuiken, A. Vazquez-Mayagoitia, M. Swart, Q. Wu, T. Van Voorhis,
     A. A. Auer, M. Nooijen, L. D. Crosby, E. Brown, G. Cisneros, G. I. Fann,
   H. Fruchtl, J. Garza, K. Hirao, R. A. Kendall, J. A. Nichols, K. Tsemekhman,
    K. Wolinski, J. Anchell, D. E. Bernholdt, P. Borowski, T. Clark, D. Clerc,
   H. Dachsel, M. J. O. Deegan, K. Dyall, D. Elwood, E. Glendening, M. Gutowski,
   A. C. Hess, J. Jaffe, B. G. Johnson, J. Ju, R. Kobayashi, R. Kutteh, Z. Lin,
   R. Littlefield, X. Long, B. Meng, T. Nakajima, S. Niu, L. Pollack, M. Rosing,
   K. Glaesemann, G. Sandrone, M. Stave, H. Taylor, G. Thomas, J. H. van Lenthe,
                               A. T. Wong, Z. Zhang.

 Total times  cpu:        4.7s     wall:        5.8s
