   This run of MOLCAS is using the pymolcas driver

                             OPE
                             OPE          NMOL  CASOP  ENMOLC A   SO
                 OPE        NMOLC        AS  OP EN  MO LC     AS  OP
                OPENM       OL CA        SO  PE NM  OL CA     SOP EN
                OP EN      MO   LC       AS  OP ENMOL  CASO   PENMOL
                OP  EN     MO   LC       AS  OP EN     MO     LC ASO
               OP   E  NMOL  C  AS       OP  EN MO     LC     AS  OP
               OP  E   NMO   LC AS        OPEN  MO     LCASOP EN   M
               O  PEN   MO  LCA  SO
            OPE   NMO   L   CAS    OP
        OPENMOL  CASOP     ENMOL   CASOPE
     OPENMOLCA   SOPENMOLCASOPEN   MOLCASOPE
    OPENMOLCAS   OP           EN   MOL    CAS
    OPENMOLCAS       OP  ENM        O     LCA
    OPENMOLCAS    OPEN  MOLCASO     P  E  NMO
    OPENMOLCAS     OP               E  N  MOL
    OPENMOLCA   SO           PENM   O  L  CAS    OPEN    MO    LCAS
    OPENMOLCA   SOP           ENM   O  L  CAS   OP  EN  MOLC  AS   O
    OPENMOLCA   SOPE           NM      O  LCA   S      OP  EN MO
    OPENMOLC                AS         O  PEN   M      OL  CA  SOPE
    OPENMO        LCASOPE  NMOL        C  ASO   P      ENMOLC     AS
    OPE     NMO      LCA  SO     P     E   NM   OL  CA SO  PE N   MO
          OPENMOLCA            SOPE   NMO        LCAS  O    P  ENMO
     OPENMOLCASOPENMOLCASOPENMOLCASOPENMOLCA
        OPENMOLCASOPENMOLCASOPENMOLCASOPE
            OPENMOLCASOPENMOLCASOPENM
               OPENMOLCASOPENMOLCA        version: v25.02 ?
                   OPENMOLCASO
                       OPE                tag:

 OpenMolcas is free software; you can redistribute it and/or modify it
 under the terms of the GNU Lesser General Public License version 2.1.
 OpenMolcas is distributed in the hope that it will be useful, but it
 is provided "as is" and without any express or implied warranties.
 For more details see the full text of the license in the file
 LICENSE or in <http://www.gnu.org/licenses/>.

                 Copyright (C) The OpenMolcas Authors
           For the author list and the recommended citation,
                   consult the file CONTRIBUTORS.md

           *************************************************
           * pymolcas version py2.29                       *
           *   build c0481229b6f3f65ed2c83878be511d3d      *
           *   (after the EMIL interpreter by V. Veryazov) *
           *************************************************

configuration info
------------------
Host name: bcb11747ffd6 (Linux)
C Compiler ID: IntelLLVM
C flags: -std=gnu99 -qopenmp
Fortran Compiler ID: IntelLLVM
Fortran flags: -standard-semantics -fltconsistency -fpp -i8 -heap-arrays -qopenmp
Definitions: _MOLCAS_;_I8_;_LINUX_;_MOLCAS_MPP_;_SCALAPACK_;_GA_
Parallel: ON (GA=ON)


   -------------------------------------------------------------
  |
  |           Project: dmabn
  |    Submitted from: /home/charlie/input_examples/molcas/dmabn
  |      Scratch area: /tmp/dmabn
  |   Save outputs to: /home/charlie/input_examples/molcas/dmabn
  |            Molcas: /apps/openmolcas
  |
  | Scratch area is empty (for the master process)
  |
  |    MOLCAS_DRIVER = /apps/openmolcas/pymolcas
  |    MOLCAS_NPROCS = 10
  |    MOLCAS_SOURCE = /apps/openmolcas
  | MOLCAS_STRUCTURE = 0
  |
   -------------------------------------------------------------

++ ---------   Input file   ---------

&SEWARD
Title
para-DMABN molecule. Cavity size: 10 au.
Symmetry
 X XY
Basis set
N.ANO-S...3s2p1d.
N1             0.0000000000        0.0000000000        4.7847613288
N2             0.0000000000        0.0000000000       -8.1106617786
End of basis
Basis set
C.ANO-S...3s2p1d.
C1             0.0000000000        0.0000000000        2.1618352923
C2             0.0000000000        2.2430930886        0.7747833630
C3             0.0000000000        2.2317547910       -1.8500321252
C4             0.0000000000        0.0000000000       -3.1917306021
C5             0.0000000000        0.0000000000       -5.9242601761
C6             0.0000000000        2.4377336900        6.0640991723
End of basis
Basis set
H.ANO-S...2s.
H1             0.0000000000        4.0043085530       -2.8534714086
H2             0.0000000000        4.0326542950        1.7215314260
H3             0.0000000000        2.1467175630        8.0879851846
H4             1.5779129980        3.6622699270        5.5104123361
End of basis

RF-Input
reaction field
38.8 10.0 4
End of RF-Input

Well Int
4
1.0 5.0 12.0
1.0 3.5 13.0
1.0 2.0 15.0
1.0 1.4 17.0
End of Input

&SCF
TITLE
 DMABN molecule
OCCUPIED
20 2 12 5
ITERATIONS
50
END OF INPUT

&RASSCF
TITLE
 p-DMABN
SYMMETRY
    1
SPIN
    1
NACTEL
   10    0    0
FROZEN
    8    0    3    0
INACTIVE
   12    1    9    1
RAS2
    0    2    0    7
THRS
1.0E-06,1.0E-03,1.0E-03
ITER
50,25
LUMORB
END OF INPUT

-- ----------------------------------

--- Start Module: seward at Fri Dec  5 01:09:13 2025 ---
 
()()()()()()()()()()()()()()()()()()()()()()()()()()()()()()()()()()()()()()()()()()()()()()()()()()

                                              &SEWARD

             launched 10 MPI processes, running in PARALLEL mode (work-sharing enabled)
                       available to each process: 2.0 GB of memory, 1 thread
                                        master pid: 3074639
()()()()()()()()()()()()()()()()()()()()()()()()()()()()()()()()()()()()()()()()()()()()()()()()()()
 
               SEWARD will generate:
                  Multipole Moment integrals up to order  2
                  Kinetic Energy integrals
                  Nuclear Attraction integrals (point charge)
                  One-Electron Hamiltonian integrals
                  Velocity integrals
                  Reaction Field integrals (KirkWood-Onsager)
                  Orbital angular momentum around ( 0.0000  0.0000  0.1776 )
                  Velocity quadrupole around ( 0.0000  0.0000  0.1776 )
                  Spherical well for   4 exponent(s) added to the one-electron Hamiltonian
                  Two-Electron Repulsion integrals
 
 Title:
                            para-DMABN molecule. Cavity size: 10 au.                    
 
 
                   Integrals are discarded if absolute value <: 1.00E-14
                   Integral cutoff threshold is set to       <: 1.00E-16
 
++    Symmetry information:
      ---------------------
 
                    --- Group Generators ---
                    Reflection in the yz-plane  
                    Rotation around the z-axis  
 
                    Character Table for C2v
 
                             E   s(yz) C2(z) s(xz)
                    a1       1     1     1     1  z
                    a2       1    -1     1    -1  xy, Rz, I
                    b2       1     1    -1    -1  y, yz, Rx
                    b1       1    -1    -1     1  x, xz, Ry
--
 
 
                    Unitary symmetry adaptation
 
 
++    Basis set information:
      ----------------------
 
 
      Basis set label: N.ANO-S...3S2P1D......
 
      Electronic valence basis set:
      ------------------
      Associated Effective Charge   7.000000 au
      Associated Actual Charge      7.000000 au
      Nuclear Model: Point charge
 
      Shell  nPrim  nBasis  Cartesian Spherical Contaminant
         s      10       3        X                  
         p       6       2        X                  
         d       3       1                 X         
 
 
      Basis set label: C.ANO-S...3S2P1D......
 
      Electronic valence basis set:
      ------------------
      Associated Effective Charge   6.000000 au
      Associated Actual Charge      6.000000 au
      Nuclear Model: Point charge
 
      Shell  nPrim  nBasis  Cartesian Spherical Contaminant
         s      10       3        X                  
         p       6       2        X                  
         d       3       1                 X         
 
 
      Basis set label: H.ANO-S...2S......
 
      Electronic valence basis set:
      ------------------
      Associated Effective Charge   1.000000 au
      Associated Actual Charge      1.000000 au
      Nuclear Model: Point charge
 
      Shell  nPrim  nBasis  Cartesian Spherical Contaminant
         s       7       2        X                  
--
 
 
++    Molecular structure info:
      -------------------------
 
                    ************************************************ 
                    **** Cartesian Coordinates / bohr, angstrom **** 
                    ************************************************ 
 
     Center  Label                x              y              z                     x              y              z
        1      N1               0.000000       0.000000       4.784761              0.000000       0.000000       2.531987
        2      N2               0.000000       0.000000      -8.110662              0.000000       0.000000      -4.291977
        3      C1               0.000000       0.000000       2.161835              0.000000       0.000000       1.143994
        4      C2               0.000000       2.243093       0.774783              0.000000       1.186994       0.409998
        5      C2               0.000000      -2.243093       0.774783              0.000000      -1.186994       0.409998
        6      C3               0.000000       2.231755      -1.850032              0.000000       1.180994      -0.978995
        7      C3               0.000000      -2.231755      -1.850032              0.000000      -1.180994      -0.978995
        8      C4               0.000000       0.000000      -3.191731              0.000000       0.000000      -1.688991
        9      C5               0.000000       0.000000      -5.924260              0.000000       0.000000      -3.134983
       10      C6               0.000000       2.437734       6.064099              0.000000       1.289993       3.208983
       11      C6               0.000000      -2.437734       6.064099              0.000000      -1.289993       3.208983
       12      H1               0.000000       4.004309      -2.853471              0.000000       2.118989      -1.509992
       13      H1               0.000000      -4.004309      -2.853471              0.000000      -2.118989      -1.509992
       14      H2               0.000000       4.032654       1.721531              0.000000       2.133989       0.910995
       15      H2               0.000000      -4.032654       1.721531              0.000000      -2.133989       0.910995
       16      H3               0.000000       2.146718       8.087985              0.000000       1.135994       4.279977
       17      H3               0.000000      -2.146718       8.087985              0.000000      -1.135994       4.279977
       18      H4               1.577913       3.662270       5.510412              0.834996       1.937990       2.915985
       19      H4              -1.577913       3.662270       5.510412             -0.834996       1.937990       2.915985
       20      H4              -1.577913      -3.662270       5.510412             -0.834996      -1.937990       2.915985
       21      H4               1.577913      -3.662270       5.510412              0.834996      -1.937990       2.915985
 
                    ************************************************* 
                    **** InterNuclear Distances / bohr, angstrom **** 
                    ************************************************* 
 
     Atom centers         bohr        angstrom
   14 H2        4 C2      2.024564        1.071353
   15 H2        5 C2    
   12 H1        6 C3      2.036869        1.077865
   13 H1        7 C3    
   16 H3       10 C6      2.044702        1.082010
   17 H3       11 C6    
   18 H4       10 C6      2.072647        1.096798
   19 H4       10 C6    
   20 H4       11 C6    
   21 H4       11 C6    
    9 C5        2 N2      2.186402        1.156994
    8 C4        6 C3      2.604013        1.377984
    8 C4        7 C3    
    3 C1        1 N1      2.622926        1.387993
    6 C3        4 C2      2.624840        1.389005
    7 C3        5 C2    
    4 C2        3 C1      2.637305        1.395602
    5 C2        3 C1    
    9 C5        8 C4      2.732530        1.445992
   10 C6        1 N1      2.753044        1.456848
   11 C6        1 N1    
   19 H4       18 H4      3.155826        1.669991
   21 H4       20 H4    
   18 H4       16 H3      3.380916        1.789103
   19 H4       16 H3    
   20 H4       17 H3    
   21 H4       17 H3    
   16 H3        1 N1      3.939503        2.084695
   17 H3        1 N1    
   14 H2        6 C3      3.999913        2.116663
   15 H2        7 C3    
   12 H1        8 C4      4.018570        2.126536
   13 H1        8 C4    
   12 H1        4 C2      4.033127        2.134239
   13 H1        5 C2    
   18 H4        1 N1      4.053221        2.144872
   19 H4        1 N1    
   20 H4        1 N1    
   21 H4        1 N1    
   14 H2        3 C1      4.056620        2.146671
   15 H2        3 C1    
   18 H4       14 H2      4.120997        2.180737
   19 H4       14 H2    
   20 H4       15 H2    
   21 H4       15 H2    
   17 H3       16 H3      4.293435        2.271988
    7 C3        6 C3      4.463510        2.361988
    5 C2        4 C2      4.486186        2.373987
    8 C4        4 C2      4.556830        2.411371
    8 C4        5 C2    
   14 H2       12 H1      4.575091        2.421034
   15 H2       13 H1    
    6 C3        3 C1      4.590840        2.429368
    7 C3        3 C1    
    4 C2        1 N1      4.594713        2.431418
    5 C2        1 N1    
   10 C6        3 C1      4.601110        2.434802
   11 C6        3 C1    
   14 H2       10 C6      4.626194        2.448076
   15 H2       11 C6    
    9 C5        6 C3      4.645435        2.458258
    9 C5        7 C3    
   11 C6       10 C6      4.875467        2.579986
    8 C4        2 N2      4.918931        2.602986
   16 H3       11 C6      5.011318        2.651875
   17 H3       10 C6    
   12 H1        9 C5      5.046210        2.670339
   13 H1        9 C5    
   14 H2        1 N1      5.064156        2.679836
   15 H2        1 N1    
    6 C3        5 C2      5.187863        2.745299
    7 C3        4 C2    
   18 H4        4 C2      5.189418        2.746121
   19 H4        4 C2    
   20 H4        5 C2    
   21 H4        5 C2    
   18 H4        3 C1      5.207206        2.755535
   19 H4        3 C1    
   20 H4        3 C1    
   21 H4        3 C1    
   10 C6        4 C2      5.292896        2.800880
   11 C6        5 C2    
    8 C4        3 C1      5.353566        2.832985
--
 
 
++    Operator info:
      --------------
 
 
  Spherical well specification in au
  ==================================
    Coeff.      Exp.        R0      
  1.000000    5.000000   12.000000
  1.000000    3.500000   13.000000
  1.000000    2.000000   15.000000
  1.000000    1.400000   17.000000
 
--
 
 
            Nuclear Potential Energy            548.82244888 au
 
 
      Basis set specifications :
      Symmetry species         a1   a2   b2   b1 
      Basis functions           73   19   53   29
 
 
      Input file to MOLDEN was generated!
 
--- Stop Module: seward at Fri Dec  5 01:09:21 2025 /rc=_RC_ALL_IS_WELL_ ---
*** files: dmabn.GssOrb dmabn.guessorb.molden xmldump
    saved to directory /home/charlie/input_examples/molcas/dmabn
--- Module seward spent 7 seconds ---

*** symbolic link created: INPORB -> dmabn.GssOrb
--- Start Module: scf at Fri Dec  5 01:09:24 2025 ---
 
()()()()()()()()()()()()()()()()()()()()()()()()()()()()()()()()()()()()()()()()()()()()()()()()()()

                                                &SCF

             launched 10 MPI processes, running in PARALLEL mode (work-sharing enabled)
                       available to each process: 2.0 GB of memory, 1 thread
                                        master pid: 3074767
()()()()()()()()()()()()()()()()()()()()()()()()()()()()()()()()()()()()()()()()()()()()()()()()()()
 
++    Input section:
      --------------
 
      Header of the integral files:
                      para-DMABN molecule. Cavity size: 10 au.
       Integrals generated by Gateway/Seward, Fri Dec  5 01:09:14 2025
 
       Title:
        DMABN molecule
 
      Cartesian coordinates in angstrom:
      -----------------------------------------------------
      No.  Label        X            Y            Z        
      -----------------------------------------------------
       1   N1         0.00000000   0.00000000   2.53198665
       2   N2         0.00000000   0.00000000  -4.29197738
       3   C1         0.00000000   0.00000000   1.14399397
       4   C2         0.00000000   1.18699374   0.40999770
       5   C3         0.00000000   1.18099377  -0.97899484
       6   C4         0.00000000   0.00000000  -1.68899110
       7   C5         0.00000000   0.00000000  -3.13498347
       8   C6         0.00000000   1.28999311   3.20898308
       9   H1         0.00000000   2.11898883  -1.50999204
      10   H2         0.00000000   2.13398875   0.91099520
      11   H3         0.00000000   1.13599401   4.27997744
      12   H4         0.83499560   1.93798978   2.91598463
      13   C2         0.00000000  -1.18699374   0.40999770
      14   C3         0.00000000  -1.18099377  -0.97899484
      15   C6         0.00000000  -1.28999311   3.20898308
      16   H1         0.00000000  -2.11898883  -1.50999204
      17   H2         0.00000000  -2.13398875   0.91099520
      18   H3         0.00000000  -1.13599401   4.27997744
      19   H4        -0.83499560   1.93798978   2.91598463
      20   H4        -0.83499560  -1.93798978   2.91598463
      21   H4         0.83499560  -1.93798978   2.91598463
      -----------------------------------------------------
      Nuclear repulsion energy =  548.82244888
--
 
++    Orbital specifications:
      -----------------------
 
      Symmetry species               1   2   3   4
                                    a1  a2  b2  b1
      Frozen orbitals                0   0   0   0
      Occupied orbitals             20   2  12   5
      Secondary orbitals            53  17  41  24
      Deleted orbitals               0   0   0   0
      Total number of orbitals      73  19  53  29
      Number of basis functions     73  19  53  29
--
 
      Molecular charge                           0.000
 
 
     Reaction Field calculation: the Kirkwood model
      Dielectric Constant : 3.880E+01
      Eps_opt             : 1.000E+00
      Radius of Cavity(au): 1.000E+01
      l_Max               : 4
      Calculation type    : equilibrium
 
++    Optimization specifications:
      ----------------------------
 
      SCF Algorithm: Conventional
      Minimized density differences are used
      Number of density matrices in core                 5
      Maximum number of NDDO SCF iterations             50
      Maximum number of HF SCF iterations               50
      Threshold for SCF energy change             1.00E-09
      Threshold for density matrix                1.00E-04
      Threshold for Fock matrix                   1.50E-04
      Threshold for linear dependence             1.00E-09
      Threshold at which DIIS is turned on        1.50E-01
      Maximum depth in the DIIS procedure                5
      Maximum depth in the BFGS Hessian update          30
      Threshold at which QNR/C2DIIS is turned on  7.50E-02
      Threshold for Norm(delta) (QNR/C2DIIS)      1.00E-03
      All orbitals punched on: SCFORB
--
 
      Detected guessorb starting orbitals                                             
 
 
++ Convergence information
                                   SCF        iterations: Energy and convergence statistics
 
Iter     Tot. SCF        One-elec.       Two-elec.     Energy      Max Dij or  Max Fij      DNorm      TNorm      AccCon     Time
         Energy          Energy          Energy        Change      Delta Norm                                                in Sec.
   1  -453.881247261 -1061.568088192   368.783395030   0.00E+00    5.71E-01*   1.58E-01*    1.19E+01   1.42E+02   None         0.
   2  -455.136056731 -1091.342427797   397.302925165  -1.25E+00*   4.75E-01*   1.94E-01*    5.35E+00   1.48E+02   EDIIS        0.
   3  -455.291321215 -1079.702122857   385.507355741  -1.55E-01*   1.01E-01*   8.50E-02*    2.26E+00   1.46E+02   EDIIS        0.
   4  -455.538999575 -1083.654083908   389.211638432  -2.48E-01*   2.70E-02*   1.81E-02*    8.42E-01   1.47E+02   c2DIIS       0.
   5  -455.553396511 -1083.837224134   389.380381722  -1.44E-02*   2.70E-02*   4.28E-03*    2.15E-01   1.47E+02   QNRc2DIIS    0.
   6  -455.553849974 -1083.450314466   388.993018592  -4.53E-04*   1.14E-02*   4.55E-03*    9.29E-02   1.46E+02   QNRc2DIIS    0.
   7  -455.554264036 -1083.530610030   389.072900094  -4.14E-04*   4.45E-03*   8.05E-04*    1.63E-02   1.47E+02   QNRc2DIIS    0.
   8  -455.554285996 -1083.600951419   389.143219522  -2.20E-05*   2.57E-03*   5.46E-04*    8.63E-03   1.47E+02   QNRc2DIIS    0.
   9  -455.554295233 -1083.573372905   389.115631771  -9.24E-06*   1.80E-03*   1.89E-04*    3.26E-03   1.47E+02   QNRc2DIIS    0.
  10  -455.554297030 -1083.562951637   389.105208705  -1.80E-06*   5.81E-04    7.41E-05     1.95E-03   1.47E+02   QNRc2DIIS    0.
  11  -455.554297387 -1083.566991326   389.109248038  -3.56E-07*   1.32E-04    2.72E-05     8.76E-04   1.47E+02   QNRc2DIIS    0.
  12  -455.554297425 -1083.567889692   389.110146366  -3.87E-08*   7.97E-05    7.81E-06     3.92E-04   1.47E+02   QNRc2DIIS    0.
  13  -455.554297431 -1083.567633353   389.109890021  -5.68E-09*   2.34E-05    3.45E-06     2.25E-04   1.47E+02   QNRc2DIIS    0.
  14  -455.554297432 -1083.567650972   389.109907640  -8.82E-10    1.08E-05    1.91E-06     6.72E-05   1.47E+02   QNRc2DIIS    0.
 
       Convergence after  14 Macro Iterations
--
 
 *****************************************************************************************************************************
 *                                                                                                                           *
 *                                             SCF/KS-DFT Program, Final results                                             *
 *                                                                                                                           *
 *                                                                                                                           *
 *                                                                                                                           *
 *                                                       Final Results                                                       *
 *                                                                                                                           *
 *****************************************************************************************************************************
 
::    Total SCF energy                               -455.5542974319
      One-electron energy                           -1083.5676509724
      Two-electron energy                             389.1099076396
      Nuclear repulsion energy                        238.9034459009
      Kinetic energy (interpolated)                   455.9006422065
      Virial theorem                                    0.9992403065
      Total spin, S(S+1)                                0.0000000000
      Total spin, S                                     0.0000000000
      Max non-diagonal density matrix element           0.0000092188
      Max non-diagonal Fock matrix element              0.0000013296
 
      Multipole analysis of the contributions to the dielectric solvation energy
 
      --------------------------------------
         l             dE 
      --------------------------------------
         0          -0.0000000000
         1          -0.0060492417
         2          -0.0012144279
         3          -0.0037707484
         4          -0.0008940489
      --------------------------------------
 
 
      Total Multipole Moments (cartesian)
      -----------------------------------
          -2.48690E-12
          -8.67362E-19  -1.33227E-15   3.54663E+00
          -5.31468E+01  -4.45824E-16  -1.38778E-17  -4.31795E+01   6.99441E-15  -6.15454E+01
           9.02056E-16  -1.38778E-17  -1.46637E+01  -1.78330E-15  -1.77636E-15  -3.58047E-15  -7.10543E-15
          -6.87009E+00   0.00000E+00   2.48196E+02
          -2.66401E+02  -1.77636E-15   1.42109E-14  -2.88824E+02  -3.66374E-15  -1.17483E+03   5.55112E-17
           7.04992E-15  -1.42109E-14   0.00000E+00  -1.24936E+03   0.00000E+00  -1.21984E+03   0.00000E+00
          -7.69845E+03
      -----------------------------------
 
 
      Total Electric Field (cartesian)
      --------------------------------
          -2.42280E-13
          -8.34256E-22  -1.28142E-18   3.41126E-03
          -7.51184E-06  -1.28099E-20  -3.98752E-22   1.35683E-04   2.00971E-19  -1.28171E-04
           8.55179E-22   1.01070E-21  -4.30061E-05  -6.38648E-22  -2.54664E-21  -1.92689E-21  -6.77113E-22
          -3.74196E-05   1.02064E-21   2.68086E-05
          -1.39119E-07   8.43833E-23   8.51781E-23  -1.61054E-06  -1.57374E-22   2.44525E-06   1.14984E-22
           2.01089E-22  -5.98101E-22  -1.52208E-22  -5.64439E-07   2.62290E-23   4.99717E-06   2.62290E-23
          -1.24040E-06
      -----------------------------------
 
 
      All orbitals with orbital energies smaller than  E(LUMO)+0.5 are printed
 
++    Molecular orbitals:
      -------------------
 
      Title: SCF orbitals

      Molecular orbitals for symmetry species 1: a1 
 
          Orbital            1         2         3         4         5         6         7         8         9        10    
          Energy          -15.5807  -15.5774  -11.3081  -11.3008  -11.2773  -11.2734  -11.2620  -11.2472   -1.2748   -1.2350
          Occ. No.          2.0000    2.0000    2.0000    2.0000    2.0000    2.0000    2.0000    2.0000    2.0000    2.0000
 
        1 N1     1s         0.9996    0.0000   -0.0002    0.0000    0.0001    0.0000   -0.0004   -0.0001   -0.0327    0.0036
        2 N1     2s        -0.0014    0.0001    0.0002    0.0000    0.0004    0.0001   -0.0013   -0.0008    0.5856   -0.0666
        3 N1     3s        -0.0028    0.0000   -0.0001    0.0000    0.0002    0.0000   -0.0011   -0.0004   -0.0168    0.0019
        4 N1     2pz        0.0007   -0.0001   -0.0006    0.0004    0.0002    0.0003    0.0016    0.0018   -0.0681   -0.0037
        5 N1     3pz        0.0010   -0.0001   -0.0004    0.0005    0.0003    0.0004    0.0017    0.0021   -0.0243   -0.0040
        6 N1     3d0       -0.0001    0.0000   -0.0001   -0.0000   -0.0000   -0.0000   -0.0001   -0.0001    0.0109   -0.0003
        7 N1     3d2+       0.0002   -0.0000    0.0002   -0.0000   -0.0000   -0.0000    0.0003    0.0000   -0.0132    0.0019
        8 N2     1s        -0.0000    1.0006    0.0000    0.0009   -0.0001    0.0001   -0.0000    0.0000   -0.0014   -0.0444
        9 N2     2s        -0.0001    0.0042    0.0001   -0.0007   -0.0004    0.0003   -0.0001    0.0001    0.0235    0.5462
       10 N2     3s        -0.0000    0.0009    0.0000   -0.0005   -0.0001    0.0001   -0.0000    0.0001    0.0004   -0.0273
       11 N2     2pz       -0.0000    0.0031    0.0001   -0.0014    0.0001    0.0003   -0.0001   -0.0000    0.0074    0.1836
       12 N2     3pz       -0.0000   -0.0002    0.0001   -0.0006    0.0003    0.0002   -0.0001   -0.0001   -0.0030   -0.0666
       13 N2     3d0       -0.0000    0.0012    0.0000   -0.0006    0.0000    0.0000   -0.0000   -0.0000    0.0010    0.0320
       14 N2     3d2+       0.0000    0.0000    0.0000    0.0000    0.0000   -0.0000   -0.0000    0.0000   -0.0001    0.0000
       15 C1     1s         0.0005   -0.0000    0.9991   -0.0002   -0.0005    0.0005    0.0006    0.0140   -0.0455   -0.0006
       16 C1     2s         0.0025   -0.0001   -0.0029   -0.0005   -0.0016   -0.0001    0.0018    0.0008    0.2385   -0.0080
       17 C1     3s         0.0010   -0.0001   -0.0040   -0.0003   -0.0008   -0.0001    0.0010    0.0005   -0.0505   -0.0024
       18 C1     2pz        0.0024   -0.0001    0.0007    0.0006    0.0002    0.0002    0.0028    0.0022    0.0345   -0.0170
       19 C1     3pz        0.0022   -0.0001    0.0001    0.0005    0.0001    0.0002    0.0027    0.0020   -0.0758    0.0106
       20 C1     3d0       -0.0003   -0.0000    0.0001    0.0000   -0.0000    0.0000    0.0002    0.0003    0.0247   -0.0034
       21 C1     3d2+      -0.0001   -0.0000   -0.0003    0.0000    0.0000    0.0000   -0.0001   -0.0003   -0.0065   -0.0012
       22 C2     1s         0.0000   -0.0001    0.0137    0.0001   -0.0046   -0.0227   -0.0001   -0.9991   -0.0255   -0.0028
       23 C2     2s         0.0004   -0.0004    0.0014    0.0004   -0.0003   -0.0017    0.0007    0.0016    0.1244    0.0491
       24 C2     3s         0.0003   -0.0002    0.0004    0.0001   -0.0001   -0.0007    0.0005    0.0038   -0.0344    0.0031
       25 C2     2py       -0.0000   -0.0003   -0.0023   -0.0007   -0.0012    0.0001   -0.0007   -0.0002   -0.0413   -0.0155
       26 C2     3py       -0.0000   -0.0003   -0.0018   -0.0007   -0.0012    0.0001   -0.0007   -0.0005    0.0226   -0.0083
       27 C2     2pz       -0.0013   -0.0001    0.0010   -0.0000    0.0011    0.0017   -0.0004   -0.0010    0.0529   -0.0345
       28 C2     3pz       -0.0012   -0.0001    0.0006    0.0000    0.0009    0.0014   -0.0004   -0.0010    0.0115   -0.0089
       29 C2     3d1-       0.0001    0.0000   -0.0002   -0.0000   -0.0001   -0.0000    0.0000    0.0002   -0.0113    0.0010
       30 C2     3d0       -0.0001    0.0000   -0.0002    0.0000   -0.0001   -0.0000    0.0000   -0.0002    0.0026    0.0037
       31 C2     3d2+      -0.0001    0.0000    0.0001   -0.0000   -0.0000   -0.0002    0.0000    0.0003   -0.0051   -0.0001
       32 C3     1s        -0.0001   -0.0000    0.0001   -0.0006   -0.2409   -0.9697   -0.0000    0.0228   -0.0067   -0.0141
       33 C3     2s        -0.0007   -0.0001    0.0002   -0.0017   -0.0018    0.0020   -0.0002   -0.0019    0.0879    0.0871
       34 C3     3s        -0.0003   -0.0000    0.0001   -0.0009    0.0000    0.0036   -0.0000   -0.0010   -0.0047   -0.0191
       35 C3     2py       -0.0003    0.0003    0.0007    0.0011    0.0026   -0.0005   -0.0003    0.0003   -0.0218   -0.0374
       36 C3     3py       -0.0003    0.0002    0.0007    0.0009    0.0020   -0.0006   -0.0003    0.0003    0.0003    0.0052
       37 C3     2pz        0.0001    0.0005    0.0007    0.0005    0.0015    0.0009    0.0002   -0.0013    0.0325   -0.0099
       38 C3     3pz        0.0002    0.0006    0.0007    0.0005    0.0011    0.0008    0.0002   -0.0010    0.0079    0.0101
       39 C3     3d1-      -0.0000    0.0000   -0.0001   -0.0000   -0.0002   -0.0001    0.0000    0.0000    0.0014    0.0046
       40 C3     3d0        0.0000    0.0000    0.0000   -0.0000    0.0002   -0.0003   -0.0000    0.0001    0.0039   -0.0023
       41 C3     3d2+       0.0000    0.0001   -0.0000    0.0002    0.0001    0.0004    0.0000   -0.0002   -0.0004   -0.0054
       42 C4     1s        -0.0000    0.0004   -0.0001   -0.0166   -0.9695    0.2410   -0.0001   -0.0010   -0.0079   -0.0215
       43 C4     2s        -0.0001    0.0022    0.0011    0.0025    0.0035   -0.0004   -0.0004    0.0000    0.0381    0.1357
       44 C4     3s        -0.0001    0.0009    0.0006    0.0010    0.0049   -0.0008   -0.0002    0.0000   -0.0100   -0.0107
       45 C4     2pz        0.0002   -0.0012   -0.0003    0.0007    0.0005   -0.0015    0.0002    0.0003   -0.0031   -0.0784
       46 C4     3pz        0.0002   -0.0008   -0.0004    0.0010   -0.0006   -0.0011    0.0002    0.0003   -0.0192   -0.0531
       47 C4     3d0       -0.0000    0.0003    0.0000    0.0004   -0.0000    0.0003   -0.0000   -0.0000   -0.0003    0.0128
       48 C4     3d2+      -0.0000   -0.0000   -0.0000   -0.0001    0.0001   -0.0003   -0.0000    0.0001   -0.0023   -0.0055
       49 C5     1s         0.0000   -0.0009   -0.0002   -0.9994    0.0167   -0.0041    0.0001    0.0000   -0.0044   -0.0725
       50 C5     2s         0.0002   -0.0049   -0.0003   -0.0003   -0.0012   -0.0015    0.0005   -0.0001    0.0192    0.3474
       51 C5     3s         0.0001   -0.0016   -0.0001    0.0019   -0.0004   -0.0008    0.0002   -0.0001   -0.0043   -0.0627
       52 C5     2pz        0.0000    0.0011   -0.0001   -0.0001   -0.0009   -0.0004    0.0001    0.0001    0.0046   -0.1570
       53 C5     3pz        0.0000   -0.0003   -0.0001    0.0006   -0.0007   -0.0004    0.0001    0.0001    0.0066    0.0888
       54 C5     3d0        0.0000   -0.0014   -0.0000   -0.0015    0.0005   -0.0003    0.0000   -0.0000    0.0037    0.0504
       55 C5     3d2+      -0.0000   -0.0000   -0.0000    0.0000   -0.0001    0.0001   -0.0000    0.0000    0.0000   -0.0007
       56 C6     1s         0.0004    0.0000   -0.0002   -0.0000   -0.0000    0.0000    0.9997   -0.0004   -0.0341    0.0043
       57 C6     2s         0.0019    0.0001    0.0007   -0.0002   -0.0002   -0.0002   -0.0004   -0.0014    0.2140   -0.0273
       58 C6     3s         0.0007    0.0000    0.0004   -0.0001   -0.0001   -0.0002   -0.0030   -0.0009   -0.0440    0.0060
       59 C6     2py        0.0000   -0.0000   -0.0001    0.0003    0.0003    0.0002   -0.0002    0.0008   -0.1266    0.0116
       60 C6     3py        0.0006   -0.0000    0.0000    0.0003    0.0003    0.0002    0.0006    0.0008   -0.0026   -0.0035
       61 C6     2pz       -0.0010   -0.0000   -0.0004   -0.0001    0.0002    0.0003   -0.0000   -0.0004   -0.0309    0.0005
       62 C6     3pz       -0.0007   -0.0000   -0.0003   -0.0001    0.0002    0.0004    0.0005   -0.0005    0.0433   -0.0081
       63 C6     3d1-      -0.0002   -0.0000    0.0001   -0.0000   -0.0000   -0.0000    0.0000    0.0000    0.0205   -0.0021
       64 C6     3d0       -0.0000    0.0000    0.0000    0.0000    0.0000    0.0000    0.0000   -0.0000   -0.0039    0.0000
       65 C6     3d2+       0.0002    0.0000   -0.0001    0.0000    0.0000    0.0000   -0.0001    0.0001   -0.0195    0.0019
       66 H1     1s         0.0003    0.0001    0.0002    0.0000   -0.0008   -0.0003    0.0005   -0.0005    0.0196    0.0226
       67 H1     2s         0.0002   -0.0000    0.0002   -0.0001   -0.0004    0.0003    0.0004   -0.0004    0.0030   -0.0015
       68 H2     1s        -0.0001    0.0002    0.0009    0.0001    0.0001   -0.0003    0.0008   -0.0008    0.0322    0.0130
       69 H2     2s         0.0000    0.0001    0.0006   -0.0000   -0.0000   -0.0001    0.0006   -0.0001   -0.0077    0.0047
       70 H3     1s         0.0001    0.0000    0.0003    0.0001   -0.0001   -0.0003    0.0004    0.0003    0.0236    0.0004
       71 H3     2s         0.0003    0.0000    0.0003    0.0000   -0.0001   -0.0003   -0.0004    0.0001   -0.0270    0.0058
       72 H4     1s        -0.0015   -0.0000   -0.0006   -0.0003   -0.0003   -0.0003    0.0012   -0.0003    0.1120   -0.0097
       73 H4     2s        -0.0006    0.0000   -0.0003   -0.0002   -0.0002   -0.0003   -0.0001   -0.0002    0.0171    0.0016
 
          Orbital           11        12        13        14        15        16        17        18        19        20    
          Energy           -1.1758   -1.0562   -0.9247   -0.8349   -0.7706   -0.7135   -0.6539   -0.5994   -0.5685   -0.5472
          Occ. No.          2.0000    2.0000    2.0000    2.0000    2.0000    2.0000    2.0000    2.0000    2.0000    2.0000
 
        1 N1     1s         0.0100   -0.0021    0.0129    0.0068    0.0011   -0.0009   -0.0010    0.0002   -0.0011   -0.0015
        2 N1     2s        -0.2039    0.1732   -0.1144   -0.3011    0.0099   -0.1487   -0.0717   -0.0510   -0.0666   -0.0125
        3 N1     3s         0.0036    0.0102    0.0198   -0.0050    0.0040   -0.0076   -0.0053   -0.0011   -0.0034   -0.0014
        4 N1     2pz       -0.0523    0.0979    0.1823    0.0228   -0.0404   -0.3416   -0.0396    0.0652   -0.1215   -0.3728
        5 N1     3pz       -0.0189   -0.0671   -0.1128    0.0063    0.0262    0.0927   -0.0324   -0.0251   -0.0002    0.0252
        6 N1     3d0        0.0025   -0.0086   -0.0158   -0.0031    0.0008    0.0102    0.0071    0.0050    0.0161    0.0234
        7 N1     3d2+       0.0077   -0.0100   -0.0080    0.0003    0.0007    0.0058    0.0043    0.0022    0.0085    0.0141
        8 N2     1s         0.0146    0.0059   -0.0017    0.0003   -0.0043    0.0037   -0.0031    0.0322   -0.0296    0.0125
        9 N2     2s        -0.1863   -0.1358    0.1177   -0.1485   -0.1782    0.1496   -0.0508    0.5526   -0.4162    0.1523
       10 N2     3s         0.0130    0.0020    0.0030   -0.0045   -0.0160    0.0118   -0.0099    0.0831   -0.0743    0.0312
       11 N2     2pz       -0.0549   -0.0163    0.0011    0.0112    0.0316   -0.0472    0.0216   -0.4391    0.4237   -0.1829
       12 N2     3pz        0.0251    0.0274   -0.0169    0.0090    0.0061    0.0053   -0.0016    0.0795   -0.0789    0.0357
       13 N2     3d0       -0.0114   -0.0052    0.0030   -0.0028   -0.0005   -0.0001    0.0011   -0.0182    0.0191   -0.0085
       14 N2     3d2+      -0.0004   -0.0003    0.0000    0.0001   -0.0000   -0.0000   -0.0001    0.0002   -0.0001    0.0000
       15 C1     1s        -0.0144    0.0268    0.0125   -0.0169    0.0166   -0.0007   -0.0110   -0.0018   -0.0002    0.0051
       16 C1     2s         0.1203   -0.3840   -0.2613    0.1857   -0.0506    0.1126    0.2405    0.0567    0.0664    0.0421
       17 C1     3s        -0.0133    0.0025   -0.0037   -0.0128    0.0275    0.0087    0.0008    0.0010    0.0033    0.0109
       18 C1     2pz       -0.1096    0.0660   -0.1691   -0.0872    0.0678    0.2473   -0.0947   -0.0499    0.1123    0.2838
       19 C1     3pz        0.0249   -0.0461    0.0364    0.1325   -0.0707   -0.0517    0.0359    0.0026   -0.0349   -0.0853
       20 C1     3d0       -0.0118    0.0013   -0.0244   -0.0203   -0.0059    0.0185    0.0024   -0.0235   -0.0054    0.0375
       21 C1     3d2+      -0.0108    0.0182    0.0019   -0.0181    0.0013    0.0022   -0.0048   -0.0123   -0.0044    0.0174
       22 C2     1s        -0.0362    0.0332   -0.0219   -0.0009   -0.0053    0.0047    0.0004    0.0061    0.0057   -0.0054
       23 C2     2s         0.2826   -0.3340    0.1764    0.0851    0.2226   -0.2229   -0.2161    0.0683    0.0142   -0.0117
       24 C2     3s        -0.0262    0.0116   -0.0176    0.0103    0.0035   -0.0170   -0.0176    0.0136    0.0077   -0.0131
       25 C2     2py       -0.0473    0.0293    0.0686   -0.1384    0.3321    0.0138   -0.3254    0.1258    0.1665    0.0832
       26 C2     3py        0.0221   -0.0904   -0.0167    0.0349   -0.0450   -0.0612    0.0440   -0.0076   -0.0196   -0.0058
       27 C2     2pz       -0.0944   -0.0870   -0.1161    0.1818    0.0298    0.0359   -0.0764    0.2852    0.2069   -0.2759
       28 C2     3pz       -0.0060    0.0137    0.0573   -0.0690   -0.0201   -0.0285   -0.0452   -0.0762   -0.0335    0.0891
       29 C2     3d1-      -0.0015    0.0139    0.0135   -0.0095    0.0127   -0.0028   -0.0450    0.0080    0.0122   -0.0003
       30 C2     3d0        0.0138    0.0056    0.0121   -0.0231    0.0056    0.0046   -0.0030   -0.0199   -0.0081    0.0266
       31 C2     3d2+      -0.0057    0.0219   -0.0039   -0.0165   -0.0055    0.0119    0.0104   -0.0144   -0.0072    0.0168
       32 C3     1s        -0.0515   -0.0157   -0.0125    0.0166   -0.0070   -0.0024    0.0022    0.0030    0.0023   -0.0046
       33 C3     2s         0.3587    0.1529    0.1781   -0.3428   -0.0202    0.1766    0.2158   -0.0537    0.0186    0.0017
       34 C3     3s        -0.0484   -0.0094   -0.0023   -0.0028   -0.0301    0.0111    0.0166   -0.0004    0.0031   -0.0068
       35 C3     2py       -0.0831   -0.0232    0.0619   -0.1104    0.3516    0.0204    0.3685   -0.0089   -0.1064   -0.0242
       36 C3     3py        0.0368    0.0824   -0.0232   -0.0088   -0.0688    0.0145   -0.0565   -0.0057    0.0038    0.0123
       37 C3     2pz        0.0025   -0.1665    0.1576   -0.0363   -0.0315   -0.1327   -0.2035   -0.2612   -0.1539    0.3197
       38 C3     3pz       -0.0211    0.0283   -0.0392    0.0379   -0.0497    0.0709   -0.0179    0.0648    0.0639   -0.0712
       39 C3     3d1-       0.0105    0.0174   -0.0116    0.0116   -0.0107   -0.0026   -0.0465    0.0073    0.0099    0.0111
       40 C3     3d0        0.0090   -0.0128    0.0127   -0.0004    0.0155   -0.0174   -0.0034   -0.0178   -0.0214    0.0244
       41 C3     3d2+      -0.0144   -0.0171   -0.0012    0.0162    0.0080   -0.0168   -0.0143   -0.0088   -0.0109    0.0156
       42 C4     1s        -0.0431   -0.0345    0.0197   -0.0148    0.0133    0.0024    0.0090   -0.0025   -0.0053    0.0039
       43 C4     2s         0.2790    0.3733   -0.1966    0.1154   -0.0677    0.0427   -0.1822    0.1402    0.0325   -0.0015
       44 C4     3s        -0.0411   -0.0088    0.0094   -0.0106    0.0167    0.0076   -0.0034    0.0069   -0.0055    0.0069
       45 C4     2pz        0.0789   -0.0130    0.0908   -0.1485   -0.2027    0.1138   -0.1044    0.0340    0.1569   -0.0876
       46 C4     3pz       -0.0098    0.0096   -0.0520    0.0914    0.1630   -0.1035    0.0379   -0.0247   -0.0972    0.0657
       47 C4     3d0       -0.0025    0.0073   -0.0128    0.0215    0.0151   -0.0241   -0.0083   -0.0176   -0.0216    0.0253
       48 C4     3d2+      -0.0145   -0.0128    0.0036    0.0036    0.0111   -0.0125   -0.0003   -0.0114   -0.0121    0.0142
       49 C5     1s         0.0129   -0.0069    0.0070   -0.0045    0.0000   -0.0006    0.0001    0.0031   -0.0074    0.0044
       50 C5     2s        -0.0198    0.0806   -0.1557    0.2589    0.2865   -0.2487    0.0297   -0.3501    0.0361    0.0695
       51 C5     3s         0.0088   -0.0129    0.0026    0.0151    0.0241   -0.0202    0.0004   -0.0210   -0.0094    0.0117
       52 C5     2pz        0.1325    0.1257   -0.1321    0.1838    0.1419   -0.1263   -0.0142    0.0951   -0.2692    0.1676
       53 C5     3pz       -0.0453   -0.0815    0.0695   -0.0599   -0.0778    0.0309   -0.0203   -0.0526    0.0948   -0.0522
       54 C5     3d0       -0.0010    0.0104   -0.0138    0.0186    0.0139   -0.0127   -0.0015   -0.0138    0.0037    0.0013
       55 C5     3d2+       0.0032    0.0023    0.0000   -0.0006   -0.0007   -0.0007   -0.0015   -0.0004   -0.0012    0.0019
       56 C6     1s         0.0154   -0.0171   -0.0263   -0.0155   -0.0028   -0.0026    0.0029   -0.0008    0.0005    0.0034
       57 C6     2s        -0.1078    0.2237    0.3928    0.2826   -0.0525    0.1187    0.0667   -0.0376   -0.0331    0.0050
       58 C6     3s         0.0202   -0.0108   -0.0320   -0.0241   -0.0091   -0.0031    0.0086   -0.0015   -0.0012    0.0025
       59 C6     2py        0.0292   -0.0605    0.0190    0.1943    0.0392    0.3920   -0.0522   -0.1536   -0.1070    0.0284
       60 C6     3py       -0.0243    0.0026   -0.0339   -0.0248   -0.0081   -0.0443   -0.0180    0.0018   -0.0129   -0.0364
       61 C6     2pz        0.0007    0.0316    0.1251    0.1036   -0.0796   -0.1331    0.2043    0.2020    0.3701    0.4201
       62 C6     3pz       -0.0238    0.0332    0.0364    0.0091   -0.0227   -0.0065    0.0049   -0.0156   -0.0100    0.0139
       63 C6     3d1-      -0.0052    0.0012   -0.0200   -0.0293    0.0012   -0.0179   -0.0045   -0.0020   -0.0058   -0.0051
       64 C6     3d0       -0.0010    0.0005    0.0026    0.0071   -0.0021   -0.0037    0.0142    0.0197    0.0374    0.0408
       65 C6     3d2+       0.0054   -0.0090    0.0000    0.0178    0.0036    0.0324   -0.0001   -0.0073    0.0014    0.0137
       66 H1     1s         0.0471   -0.0112    0.0478   -0.0665    0.1607    0.0967    0.2598    0.0819    0.0334   -0.1552
       67 H1     2s        -0.0312   -0.0471   -0.0033    0.0675   -0.0425   -0.0307   -0.1129   -0.0077    0.0103    0.0208
       68 H2     1s         0.0408    0.0148    0.0758    0.0158    0.1949    0.0586   -0.1861    0.1633    0.1458   -0.0844
       69 H2     2s        -0.0148    0.0757   -0.0024   -0.0026   -0.0792    0.0470    0.1122   -0.0484   -0.0395    0.0103
       70 H3     1s        -0.0063    0.0344    0.1082    0.0965   -0.0050   -0.0133    0.0892    0.1109    0.1951    0.2010
       71 H3     2s         0.0189   -0.0284   -0.0571   -0.0392    0.0307    0.0392   -0.0552   -0.0425   -0.0808   -0.0982
       72 H4     1s        -0.0239    0.0653    0.1975    0.1789    0.0436    0.2140   -0.0213   -0.0840   -0.0914   -0.0348
       73 H4     2s         0.0160   -0.0126   -0.0142   -0.0463    0.0153   -0.0742    0.0218    0.0530    0.0598    0.0408
 
          Orbital           21        22        23        24        25        26        27        28        29        30    
          Energy            0.1375    0.1658    0.2083    0.2455    0.3023    0.3343    0.3608    0.3888    0.4401    0.4490
          Occ. No.          0.0000    0.0000    0.0000    0.0000    0.0000    0.0000    0.0000    0.0000    0.0000    0.0000
 
        1 N1     1s         0.0094   -0.0381    0.1156   -0.0476   -0.0788   -0.0302    0.0175    0.0206    0.0345    0.0567
        2 N1     2s         0.0294   -0.2738    0.8687   -0.4619   -0.6172   -0.1019    0.2129    0.2164   -0.0239    0.4324
        3 N1     3s         0.0245   -0.1115    0.3077   -0.1067   -0.1948   -0.0881    0.0132    0.0301    0.1642    0.1232
        4 N1     2pz        0.1360    0.2095    0.3028   -0.8360    0.0970    0.0142    0.1743    0.2525    0.5434   -0.3062
        5 N1     3pz        0.1247    0.2244    0.3500   -0.9232    0.2849   -0.1687    0.3186    0.2410    0.2944   -0.6381
        6 N1     3d0       -0.0084   -0.0046    0.0054    0.0113   -0.0282    0.0016   -0.0473   -0.0188    0.0465   -0.0092
        7 N1     3d2+      -0.0157    0.0140   -0.0096   -0.0065   -0.0225    0.0395   -0.0289    0.0073   -0.0505    0.0096
        8 N2     1s         0.0170    0.0442    0.0258    0.0501   -0.0500    0.0239    0.0791    0.0264    0.0169   -0.1215
        9 N2     2s         0.1735    0.3834    0.2304    0.3786   -0.3287    0.1953    0.5558    0.1168    0.1291   -0.8097
       10 N2     3s         0.0324    0.1061    0.0577    0.1192   -0.1176    0.0477    0.1572    0.0688    0.0365   -0.2173
       11 N2     2pz       -0.0123   -0.0806   -0.0526   -0.0826    0.0326    0.0028   -0.0443   -0.1558    0.0321   -0.0323
       12 N2     3pz       -0.0730   -0.1601   -0.0937   -0.1362    0.0801   -0.0332   -0.0762   -0.0133    0.0328   -0.1636
       13 N2     3d0        0.0001   -0.0015    0.0005   -0.0039    0.0066   -0.0004   -0.0015    0.0073   -0.0007   -0.0056
       14 N2     3d2+       0.0009    0.0015   -0.0005   -0.0000   -0.0046   -0.0034   -0.0019   -0.0032   -0.0014    0.0067
       15 C1     1s        -0.0316   -0.0301    0.1462   -0.0760    0.0603   -0.0346    0.0150   -0.2395    0.0674   -0.0571
       16 C1     2s        -0.1468   -0.1629    0.8825   -0.4445    0.3636   -0.0845   -0.0528   -1.5796    0.4656   -0.2623
       17 C1     3s        -0.0897   -0.0929    0.3325   -0.1755    0.1222   -0.0388    0.0587   -0.4666    0.1796   -0.0254
       18 C1     2pz        0.2232    0.1823   -0.4099   -0.6405    0.1025    0.7842    0.3009    0.6222    0.0531   -0.3626
       19 C1     3pz        0.2233    0.1830   -0.3031   -0.6772    0.1388    0.7337    0.4103    0.5092   -0.3515   -0.2492
       20 C1     3d0        0.0011    0.0088    0.0497   -0.0710    0.0633   -0.0383    0.0427    0.0220   -0.1450   -0.0939
       21 C1     3d2+      -0.0108    0.0327   -0.0046   -0.0031   -0.0292    0.0006   -0.0439    0.0221   -0.0675    0.0414
       22 C2     1s         0.0947   -0.1091   -0.0900   -0.0778    0.0513    0.1421    0.1136    0.0218    0.0867   -0.1039
       23 C2     2s         0.7101   -0.7414   -0.6143   -0.4938    0.2674    0.9746    0.7534    0.1632    0.6140   -0.5353
       24 C2     3s         0.2396   -0.2903   -0.2574   -0.1738    0.0777    0.3108    0.2497    0.0721    0.1987   -0.0913
       25 C2     2py        0.1297   -0.1473    0.2759    0.2618    0.0937   -0.2318   -0.2373   -0.8326    0.5831    0.4245
       26 C2     3py       -0.0025   -0.0777    0.4659    0.1715    0.2461   -0.5288   -0.2599   -0.8992    0.4515    0.1751
       27 C2     2pz        0.5669    0.4652   -0.0245   -0.1016    0.3039   -0.1813   -0.3723    0.9996    0.6202    0.1974
       28 C2     3pz        0.4669    0.5000    0.0345   -0.1598    0.3804   -0.3139   -0.4188    0.8517    0.3675   -0.0451
       29 C2     3d1-      -0.0091   -0.0253    0.0209   -0.0028    0.0709   -0.0079    0.0358    0.0908   -0.0399   -0.0677
       30 C2     3d0       -0.0002   -0.0371   -0.0179    0.0078    0.0262   -0.0376    0.0055   -0.0165    0.1475   -0.0742
       31 C2     3d2+      -0.0343    0.0070   -0.0317    0.0458   -0.0738   -0.0152   -0.0058    0.0084    0.1166    0.0422
       32 C3     1s         0.1381    0.0668   -0.0673   -0.1261   -0.0056   -0.1447   -0.1199   -0.0116   -0.0298    0.0097
       33 C3     2s         0.9821    0.4614   -0.4854   -0.8327   -0.0743   -0.9929   -0.7713   -0.1501   -0.1065    0.0316
       34 C3     3s         0.3585    0.1655   -0.1883   -0.3009   -0.0804   -0.3229   -0.2341   -0.0259   -0.0972    0.0928
       35 C3     2py        0.3662    0.3928    0.4131    0.2354    0.5272    0.3507    0.0907   -0.2456   -0.0989   -0.1553
       36 C3     3py        0.1616    0.2424    0.5035    0.2454    0.8525    0.5462    0.1144   -0.0017   -0.0553   -0.3064
       37 C3     2pz       -0.0836    0.5845    0.1868    0.1002    0.1343    0.0613   -0.5069    0.6631    0.2024    0.9661
       38 C3     3pz        0.0259    0.6491    0.1674    0.0810   -0.0967   -0.0241   -0.5202    0.5017   -0.1745    1.1666
       39 C3     3d1-       0.0030   -0.0044   -0.0314    0.0290   -0.0477    0.0687    0.0048   -0.0669    0.0753    0.0815
       40 C3     3d0        0.0298    0.0327    0.0096   -0.0216    0.0200   -0.0000    0.0026    0.0150   -0.0413   -0.0637
       41 C3     3d2+      -0.0211    0.0115   -0.0166    0.0400   -0.0909   -0.0020    0.0300   -0.0287    0.0568   -0.0048
       42 C4     1s         0.0096    0.0510    0.1001    0.0003    0.2136    0.0789   -0.0997   -0.0252    0.0092    0.1538
       43 C4     2s         0.1482    0.3985    0.6646    0.0636    1.2303    0.5813   -0.5356   -0.3562    0.1470    0.9807
       44 C4     3s         0.0236    0.1324    0.2279   -0.0089    0.4302    0.1357   -0.2235   -0.0861    0.0204    0.3415
       45 C4     2pz        0.0940    0.3058    0.5770    0.4794    0.4971    0.4071    0.4341    0.5590    0.2110   -0.5710
       46 C4     3pz        0.1899    0.4283    0.5967    0.5333    0.3192    0.3503    0.5521    0.3602    0.1807   -0.6506
       47 C4     3d0       -0.0189   -0.0329    0.0145   -0.0287    0.1114    0.0007   -0.0236    0.0990   -0.0093   -0.0263
       48 C4     3d2+      -0.0226   -0.0279   -0.0128    0.0187   -0.0307    0.0193    0.0311   -0.0204    0.0415    0.0044
       49 C5     1s         0.0341    0.0957    0.0826    0.0778    0.0385    0.0286    0.0329    0.1193   -0.0011    0.0040
       50 C5     2s         0.1564    0.5651    0.4885    0.4180    0.3289    0.1076    0.0810    0.9502   -0.0457    0.0912
       51 C5     3s         0.0462    0.2311    0.1795    0.1742    0.0602    0.0614    0.0421    0.2686    0.0136    0.0286
       52 C5     2pz        0.1234    0.4561    0.2722    0.4852   -0.3601    0.1782    0.5974    0.4932    0.1029   -0.8052
       53 C5     3pz        0.1590    0.4739    0.2466    0.5167   -0.5360    0.2155    0.6889    0.2297    0.1323   -0.8415
       54 C5     3d0        0.0321    0.0550    0.0359    0.0408   -0.0146    0.0306    0.0350   -0.0489    0.0132    0.0091
       55 C5     3d2+      -0.0027   -0.0037   -0.0025    0.0087   -0.0261   -0.0060    0.0056   -0.0336    0.0115    0.0194
       56 C6     1s         0.0770   -0.1272    0.0493    0.1537   -0.0311    0.0232   -0.0739    0.0183   -0.0626    0.0328
       57 C6     2s         0.5805   -0.9526    0.3195    1.1784   -0.1505    0.0687   -0.5312    0.0657   -0.3303    0.1397
       58 C6     3s         0.1788   -0.3453    0.1171    0.3460   -0.0941    0.0728   -0.0895    0.0499   -0.1526    0.0985
       59 C6     2py        0.3294   -0.2770    0.7616   -0.6436   -0.2739   -0.2883    0.5280    0.6850    0.2894    0.2917
       60 C6     3py        0.2469   -0.1665    0.6940   -0.6843   -0.2510   -0.4400    0.3265    0.6223    0.7443    0.0133
       61 C6     2pz        0.1288    0.1079    0.1077   -0.3139   -0.4138    1.4994   -0.6822    0.1381   -0.6622   -0.0334
       62 C6     3pz        0.2082    0.0589   -0.0292   -0.1725   -0.0459    1.1548   -0.0029   -0.0104   -0.5488    0.2555
       63 C6     3d1-      -0.0167    0.0089   -0.0002   -0.0152   -0.0413    0.0662    0.0092    0.0310   -0.0688    0.0673
       64 C6     3d0        0.0068   -0.0060   -0.0073    0.0093    0.0401   -0.0444    0.0207    0.0119    0.0167   -0.0501
       65 C6     3d2+       0.0119    0.0118   -0.0210    0.0043    0.0571    0.0012    0.0021   -0.0135   -0.0159   -0.0632
       66 H1     1s        -0.6806   -0.1164   -0.0867    0.0959    0.0675    0.3808   -0.0855    1.4551    0.3545    0.6538
       67 H1     2s        -0.5068   -0.1137   -0.0532    0.1186    0.0085    0.3394   -0.0277    0.6547    0.3730    0.4025
       68 H2     1s        -0.6843   -0.1256    0.0584   -0.2601   -0.4870   -0.2060    0.1348   -0.0892   -1.5375   -0.6996
       69 H2     2s        -0.4821   -0.0128    0.0382   -0.1042   -0.3122   -0.1384    0.0032   -0.1925   -0.6507   -0.3046
       70 H3     1s        -0.2629   -0.0840    0.0290    0.2353    0.2726   -2.0547    1.0401    0.0579    0.8630    0.4980
       71 H3     2s        -0.1342   -0.0645    0.0030    0.1237    0.1694   -1.1007    0.6864   -0.0206    0.4801    0.3610
       72 H4     1s        -0.5372    0.5719   -0.6295   -0.2202   -0.0989    1.0678   -0.4810   -0.7788   -0.2785   -0.3093
       73 H4     2s        -0.3829    0.3730   -0.3652   -0.1757   -0.1152    0.5830   -0.3150   -0.4096   -0.0682   -0.1908
 
          Orbital           31        32        33    
          Energy            0.4747    0.5458    0.5702
          Occ. No.          0.0000    0.0000    0.0000
 
        1 N1     1s        -0.0186   -0.0472   -0.0647
        2 N1     2s        -0.2041   -0.3985   -0.3597
        3 N1     3s        -0.0189   -0.0794   -0.1402
        4 N1     2pz        0.2459    0.5020    0.5668
        5 N1     3pz        0.2302    0.7889    0.2848
        6 N1     3d0        0.0218    0.0022   -0.0095
        7 N1     3d2+      -0.0180   -0.0403    0.0423
        8 N2     1s         0.0522   -0.0359    0.0480
        9 N2     2s         0.1913   -0.1953    0.3964
       10 N2     3s         0.1679   -0.1169    0.0729
       11 N2     2pz       -0.2306   -0.0883    0.4812
       12 N2     3pz        0.0918   -0.4954    0.7361
       13 N2     3d0        0.0124   -0.0036   -0.0202
       14 N2     3d2+       0.0101    0.0122    0.0098
       15 C1     1s         0.1603    0.0619   -0.0246
       16 C1     2s         1.0531    0.3723    0.1521
       17 C1     3s         0.2707    0.0145   -0.0274
       18 C1     2pz        0.2570    0.9173    0.8219
       19 C1     3pz        0.1263    0.8038    1.0456
       20 C1     3d0       -0.0307    0.0459   -0.0382
       21 C1     3d2+      -0.0410   -0.0294    0.1395
       22 C2     1s        -0.0622   -0.0113   -0.0527
       23 C2     2s        -0.5467   -0.2512   -0.5529
       24 C2     3s        -0.0861   -0.0883   -0.1126
       25 C2     2py        0.4641   -0.3424   -0.5277
       26 C2     3py        0.4627   -0.2937   -0.6782
       27 C2     2pz       -0.0627   -0.2312   -0.2257
       28 C2     3pz       -0.4567   -0.3291    0.0802
       29 C2     3d1-      -0.0291   -0.0133   -0.1122
       30 C2     3d0        0.0563    0.0597   -0.0466
       31 C2     3d2+      -0.0385   -0.0809   -0.1064
       32 C3     1s         0.0214   -0.0827    0.0220
       33 C3     2s         0.2751   -0.6261   -0.0636
       34 C3     3s         0.1273   -0.1377   -0.0263
       35 C3     2py       -0.0695   -0.8475   -0.1104
       36 C3     3py       -0.2574   -1.1454   -0.3077
       37 C3     2pz        0.3472    0.5983    0.8126
       38 C3     3pz        0.2598    0.1594    0.4725
       39 C3     3d1-      -0.0347    0.0364    0.1113
       40 C3     3d0       -0.1691   -0.1185   -0.0447
       41 C3     3d2+      -0.0492   -0.0714   -0.1317
       42 C4     1s        -0.1253   -0.0494    0.0501
       43 C4     2s        -0.8830    0.0337    0.5544
       44 C4     3s        -0.1456   -0.1067    0.0223
       45 C4     2pz        0.5928   -0.5807   -0.5833
       46 C4     3pz        0.0375   -0.3090   -0.7256
       47 C4     3d0        0.0432    0.0093   -0.0120
       48 C4     3d2+       0.0579    0.1627    0.0942
       49 C5     1s         0.1034   -0.0477   -0.2082
       50 C5     2s         0.9866   -0.5075   -1.2452
       51 C5     3s         0.3275   -0.3664   -0.3179
       52 C5     2pz        0.6947   -0.2806   -0.0696
       53 C5     3pz        0.4511   -0.1302   -0.1030
       54 C5     3d0       -0.1545    0.1303    0.0119
       55 C5     3d2+       0.0586    0.0796    0.0555
       56 C6     1s         0.0126   -0.0020    0.0043
       57 C6     2s         0.1110    0.0776   -0.0215
       58 C6     3s         0.0634    0.0052    0.0386
       59 C6     2py       -0.1496    0.1409    0.7646
       60 C6     3py       -0.1339    0.4082    0.4486
       61 C6     2pz        0.3125    0.0695   -0.4134
       62 C6     3pz        0.4460    0.1318   -0.3783
       63 C6     3d1-      -0.0489   -0.0811   -0.0079
       64 C6     3d0       -0.0095    0.0484   -0.0488
       65 C6     3d2+       0.0147    0.0628   -0.0668
       66 H1     1s        -0.4086    1.4142    0.7139
       67 H1     2s        -0.3651    0.5870    0.3378
       68 H2     1s         0.0777    0.8572    0.7344
       69 H2     2s         0.0177    0.3340    0.3744
       70 H3     1s        -0.6658   -0.5269    0.6482
       71 H3     2s        -0.2748   -0.2902    0.3631
       72 H4     1s         0.2474   -0.2338   -1.0916
       73 H4     2s         0.0742   -0.1321   -0.6509

      Molecular orbitals for symmetry species 2: a2 
 
          Orbital            1         2         3         4         5         6    
          Energy           -0.5556   -0.3635    0.1023    0.3136    0.4058    0.4434
          Occ. No.          2.0000    2.0000    0.0000    0.0000    0.0000    0.0000
 
        1 N1     3d2-       0.0180   -0.0009   -0.0019   -0.0304   -0.0393    0.0290
        2 N2     3d2-       0.0000    0.0000    0.0019    0.0036   -0.0073    0.0033
        3 C1     3d2-       0.0037    0.0403   -0.0474   -0.0761    0.0079    0.0010
        4 C2     2px        0.0346    0.6426   -1.0833   -0.0083    0.0187    0.0835
        5 C2     3px        0.0038    0.0160   -0.5189    0.5670   -0.1082    0.0732
        6 C2     3d2-       0.0016    0.0024   -0.0069    0.0226   -0.0146    0.0193
        7 C2     3d1+       0.0020   -0.0307   -0.0400    0.0570   -0.0784    0.0401
        8 C3     2px        0.0142    0.6086    1.0987    0.1119   -0.2110    0.0683
        9 C3     3px       -0.0023   -0.0013    0.5285    0.4976   -0.9366    0.3666
       10 C3     3d2-       0.0000    0.0037    0.0055    0.0170   -0.0232    0.0122
       11 C3     3d1+       0.0014    0.0314   -0.0462   -0.0766    0.0187    0.0002
       12 C4     3d2-       0.0010    0.0410    0.0506   -0.0488    0.1007   -0.0418
       13 C5     3d2-       0.0000    0.0016    0.0179    0.0186   -0.0273    0.0119
       14 C6     2px        0.6638   -0.0582    0.1484   -0.7463   -1.3195   -1.7888
       15 C6     3px       -0.0323   -0.0080    0.0412   -0.0990   -0.6190   -2.0873
       16 C6     3d2-       0.0560   -0.0037    0.0090   -0.0102    0.0208   -0.0019
       17 C6     3d1+      -0.0259   -0.0001    0.0115   -0.0053   -0.0056   -0.0685
       18 H4     1s         0.4425   -0.0309   -0.0728    1.2394    2.1717    2.3017
       19 H4     2s        -0.1340    0.0037   -0.0754    0.8597    1.2322    0.9843

      Molecular orbitals for symmetry species 3: b2 
 
          Orbital            1         2         3         4         5         6         7         8         9        10    
          Energy          -11.2736  -11.2620  -11.2472   -1.0467   -0.9864   -0.8611   -0.6857   -0.6169   -0.6076   -0.5652
          Occ. No.          2.0000    2.0000    2.0000    2.0000    2.0000    2.0000    2.0000    2.0000    2.0000    2.0000
 
        1 N1     2py        0.0002    0.0007   -0.0005    0.0444    0.2584   -0.0007   -0.2528   -0.0871   -0.4530    0.0765
        2 N1     3py        0.0003    0.0005   -0.0006   -0.0521   -0.0472   -0.0062    0.0169   -0.0238    0.0505   -0.0051
        3 N1     3d1-       0.0000   -0.0002    0.0000    0.0008    0.0165    0.0106    0.0033   -0.0025   -0.0184    0.0107
        4 N2     2py        0.0001    0.0000    0.0001    0.0076   -0.0048    0.0208   -0.0546    0.0152    0.0698   -0.0020
        5 N2     3py        0.0001    0.0000    0.0001    0.0040   -0.0020   -0.0006    0.0040    0.0019   -0.0054    0.0015
        6 N2     3d1-       0.0000    0.0000    0.0000    0.0010   -0.0007    0.0029   -0.0058    0.0009    0.0067   -0.0005
        7 C1     2py        0.0003   -0.0004   -0.0016    0.1743    0.0667   -0.1535   -0.2465   -0.0813    0.1078    0.1237
        8 C1     3py        0.0003   -0.0003   -0.0013   -0.0159    0.0087    0.1602    0.1137    0.0716   -0.0228   -0.0219
        9 C1     3d1-      -0.0001    0.0000    0.0002   -0.0199    0.0088    0.0231    0.0039    0.0236   -0.0289   -0.0038
       10 C2     1s         0.0237   -0.0004   -0.9989   -0.0493   -0.0035    0.0178   -0.0088    0.0092   -0.0002    0.0015
       11 C2     2s         0.0013    0.0001    0.0029    0.4613   -0.0967   -0.4983    0.0144   -0.0807    0.1265    0.0401
       12 C2     3s         0.0004    0.0002    0.0044   -0.0343   -0.0223   -0.0264   -0.0186   -0.0003    0.0147    0.0052
       13 C2     2py       -0.0002   -0.0008   -0.0011    0.0662    0.0208   -0.1169    0.1927    0.3615   -0.0038    0.0078
       14 C2     3py       -0.0003   -0.0008   -0.0012    0.0500    0.0339   -0.1168   -0.0359   -0.0653    0.0200    0.0247
       15 C2     2pz       -0.0015    0.0011   -0.0005   -0.0779    0.0771   -0.2361   -0.2923    0.2287    0.2408    0.1597
       16 C2     3pz       -0.0012    0.0012   -0.0005    0.0316   -0.0263   -0.0143    0.1106   -0.0774   -0.0371   -0.0326
       17 C2     3d1-      -0.0000    0.0000    0.0001    0.0069   -0.0019    0.0031    0.0145    0.0186    0.0087   -0.0133
       18 C2     3d0        0.0000    0.0001   -0.0001    0.0239   -0.0080    0.0003    0.0115   -0.0231   -0.0102   -0.0091
       19 C2     3d2+       0.0002   -0.0001    0.0002   -0.0102   -0.0021    0.0272    0.0056   -0.0166   -0.0109   -0.0070
       20 C3     1s         0.9989    0.0001    0.0236   -0.0496    0.0169   -0.0178   -0.0000    0.0061   -0.0005    0.0053
       21 C3     2s        -0.0027    0.0004   -0.0013    0.4514   -0.1959    0.4371    0.0091   -0.0995   -0.0733   -0.0428
       22 C3     3s        -0.0040    0.0002   -0.0006   -0.0445    0.0098    0.0114   -0.0032   -0.0088   -0.0041    0.0015
       23 C3     2py        0.0010    0.0009    0.0004    0.0665   -0.0673    0.0947    0.1616    0.3699   -0.2412    0.1956
       24 C3     3py        0.0010    0.0009    0.0005    0.0507   -0.0628    0.1092   -0.0444   -0.0501    0.0395   -0.0444
       25 C3     2pz       -0.0001    0.0005   -0.0020    0.0492    0.0304   -0.2713    0.3448   -0.2614   -0.1673   -0.1228
       26 C3     3pz        0.0000    0.0004   -0.0016   -0.0655    0.0385    0.0025   -0.0876    0.0606    0.0492    0.0230
       27 C3     3d1-       0.0001    0.0000    0.0000   -0.0056    0.0010    0.0033   -0.0097   -0.0176    0.0230   -0.0202
       28 C3     3d0        0.0002    0.0000    0.0000    0.0235   -0.0059   -0.0036    0.0132   -0.0234   -0.0023   -0.0114
       29 C3     3d2+      -0.0003    0.0000   -0.0002   -0.0101    0.0070   -0.0262    0.0084   -0.0165    0.0028   -0.0081
       30 C4     2py        0.0023    0.0004   -0.0007    0.1292   -0.0519    0.1693   -0.2414   -0.0758    0.2088   -0.0760
       31 C4     3py        0.0019    0.0004   -0.0007   -0.0500    0.0385   -0.1531    0.0950    0.0572   -0.0666    0.0359
       32 C4     3d1-       0.0002    0.0000   -0.0001    0.0218   -0.0096    0.0198   -0.0095   -0.0239    0.0091   -0.0139
       33 C5     2py       -0.0005   -0.0000   -0.0002    0.0121   -0.0086    0.0684   -0.0977    0.0036    0.0988   -0.0118
       34 C5     3py       -0.0006   -0.0000   -0.0003   -0.0050    0.0022    0.0147    0.0022   -0.0048   -0.0085   -0.0006
       35 C5     3d1-       0.0000   -0.0000   -0.0000    0.0029   -0.0022    0.0094   -0.0073   -0.0043    0.0035   -0.0029
       36 C6     1s        -0.0000    0.9995   -0.0003   -0.0103   -0.0433   -0.0054    0.0038    0.0011    0.0062    0.0011
       37 C6     2s        -0.0002   -0.0012    0.0002    0.1272    0.6144    0.1942    0.1343   -0.0519    0.0255    0.0617
       38 C6     3s        -0.0001   -0.0035    0.0001   -0.0134   -0.0376    0.0014    0.0075   -0.0011    0.0113    0.0073
       39 C6     2py        0.0002   -0.0002   -0.0004   -0.0125    0.0388    0.0261    0.1541    0.1371    0.3581   -0.3962
       40 C6     3py        0.0002    0.0004   -0.0003   -0.0040    0.0354   -0.0022   -0.0292    0.0003   -0.0350   -0.0038
       41 C6     2pz       -0.0002    0.0005   -0.0004   -0.0226    0.0054    0.0741    0.2512   -0.1739    0.3174    0.5364
       42 C6     3pz       -0.0003    0.0009   -0.0004    0.0033    0.0527    0.0247    0.0093   -0.0230   -0.0320    0.0092
       43 C6     3d1-      -0.0000   -0.0000    0.0001    0.0025   -0.0044   -0.0059   -0.0243   -0.0068   -0.0420    0.0111
       44 C6     3d0        0.0000    0.0000   -0.0000    0.0005    0.0070    0.0027    0.0072   -0.0142    0.0099    0.0533
       45 C6     3d2+       0.0000    0.0001    0.0000   -0.0015   -0.0006    0.0018    0.0130    0.0055    0.0248   -0.0121
       46 H1     1s        -0.0002   -0.0004   -0.0006    0.0426    0.0096    0.0496   -0.0133    0.2518   -0.0868    0.1622
       47 H1     2s        -0.0008   -0.0002   -0.0003   -0.0778    0.0559   -0.1183    0.0030   -0.0667    0.0382   -0.0316
       48 H2     1s         0.0001    0.0002    0.0001    0.0508    0.0149   -0.0140    0.0202    0.2621    0.0836    0.0159
       49 H2     2s        -0.0001    0.0001    0.0006   -0.0780    0.0064    0.1480   -0.0083   -0.0690   -0.0379   -0.0114
       50 H3     1s         0.0002    0.0007    0.0004    0.0301    0.0791    0.0204    0.0812   -0.0500    0.1351    0.2499
       51 H3     2s         0.0001   -0.0002    0.0002   -0.0044   -0.0828   -0.0489   -0.0746    0.0639   -0.0566   -0.1482
       52 H4     1s        -0.0001    0.0019    0.0008    0.0793    0.1977    0.0384    0.0794    0.0749    0.1244   -0.2178
       53 H4     2s        -0.0001    0.0004    0.0007    0.0098   -0.0831   -0.0369   -0.0177   -0.0201   -0.0217    0.1032
 
          Orbital           11        12        13        14        15        16        17        18        19        20    
          Energy           -0.5197   -0.4816    0.1648    0.1861    0.2453    0.3103    0.3546    0.3760    0.4167    0.4562
          Occ. No.          2.0000    2.0000    0.0000    0.0000    0.0000    0.0000    0.0000    0.0000    0.0000    0.0000
 
        1 N1     2py        0.1650   -0.0161   -0.1647    0.0485    0.1842    0.7301   -0.7879   -0.2357    0.3818    0.0765
        2 N1     3py       -0.0383    0.0130   -0.2506    0.0949    0.1014    0.6413   -0.5186   -0.3155    0.3998    0.2357
        3 N1     3d1-       0.0208   -0.0047    0.0065    0.0009   -0.0005    0.0084    0.0318   -0.0075    0.0537   -0.0398
        4 N2     2py        0.1954    0.5935   -0.2662   -0.8783   -0.3335   -0.0110   -0.0669   -0.1595    0.0034   -0.0807
        5 N2     3py       -0.0114   -0.0210   -0.0910   -0.4350   -0.3062    0.1892    0.0643   -0.2037   -0.3034   -0.4782
        6 N2     3d1-       0.0156    0.0416   -0.0006    0.0146    0.0236   -0.0238   -0.0125    0.0111    0.0149    0.0164
        7 C1     2py       -0.2865    0.0466    0.6050   -0.2020   -0.0123   -0.4584   -0.2335   -0.7102   -0.6454   -0.2913
        8 C1     3py        0.1056   -0.0482    0.5631   -0.1507   -0.0795   -0.3772    0.0240   -0.7913   -0.6497   -0.0507
        9 C1     3d1-       0.0378   -0.0109   -0.0286    0.0032   -0.0021    0.0344   -0.0667    0.0068   -0.0667    0.0486
       10 C2     1s         0.0069   -0.0050   -0.1385    0.1032   -0.0906    0.1543    0.0114   -0.0083    0.0868    0.0469
       11 C2     2s         0.0191    0.0178   -0.9058    0.7684   -0.6026    0.9048    0.1837   -0.2391    0.6508    0.2869
       12 C2     3s         0.0088   -0.0058   -0.4045    0.2763   -0.2310    0.3521    0.0527   -0.0953    0.0892    0.1651
       13 C2     2py        0.4327   -0.1352    0.0445   -0.1242    0.5452   -0.6081   -0.2563   -0.8900   -0.3250   -0.3163
       14 C2     3py       -0.0628    0.0228    0.2955   -0.2621    0.6314   -0.7032   -0.1012   -0.3959   -0.1262   -0.5737
       15 C2     2pz       -0.0701   -0.0394   -0.5604   -0.0821    0.4188   -0.2829    0.3639   -0.1524    0.0356    0.6196
       16 C2     3pz        0.0095    0.0389   -0.4189   -0.0201    0.4838   -0.1792    0.4521    0.0202   -0.0233    0.6133
       17 C2     3d1-       0.0527   -0.0213    0.0329   -0.0100   -0.0425    0.0052    0.0296   -0.0156    0.0070    0.0769
       18 C2     3d0       -0.0102    0.0064   -0.0088   -0.0016   -0.0124    0.0373   -0.0118    0.0490   -0.0437    0.0369
       19 C2     3d2+      -0.0107    0.0045    0.0297   -0.0099    0.0026   -0.0105    0.0228   -0.0157   -0.0419   -0.0071
       20 C3     1s        -0.0056    0.0025   -0.1769   -0.0223    0.1497    0.0172    0.0753    0.0754   -0.0223   -0.0572
       21 C3     2s        -0.0611   -0.0786   -1.2194   -0.3236    0.9392    0.1005    0.4267    0.4634   -0.3198   -0.3817
       22 C3     3s        -0.0114   -0.0029   -0.5021   -0.0296    0.4042    0.0163    0.1757    0.1184   -0.0982   -0.1803
       23 C3     2py       -0.3057    0.1735    0.0547    0.1650   -0.3720   -0.3587   -0.7585   -0.6379   -0.5278   -0.2610
       24 C3     3py        0.0401   -0.0402    0.3170    0.0419   -0.7269   -0.2368   -0.7741   -0.4800   -0.1835    0.2099
       25 C3     2pz        0.0359    0.1646    0.2661   -0.1744    0.3924   -0.6682   -0.0745    0.0032    0.0730    0.5714
       26 C3     3pz       -0.0079    0.0112    0.1125   -0.3097    0.4123   -0.7929   -0.1067   -0.1481    0.1361    0.3258
       27 C3     3d1-       0.0498   -0.0231   -0.0264    0.0195   -0.0124    0.0148   -0.0314   -0.0330    0.0148    0.0302
       28 C3     3d0        0.0103    0.0040   -0.0022    0.0331    0.0248    0.0073    0.0335    0.0132    0.0416   -0.0033
       29 C3     3d2+       0.0095    0.0004    0.0329    0.0006   -0.0219    0.0018    0.0068   -0.0306   -0.0428    0.0044
       30 C4     2py        0.1837   -0.1280    0.3920   -0.1291   -0.0443   -0.7281   -0.4144   -0.6643   -0.3376    0.0427
       31 C4     3py       -0.0694    0.0793    0.3552   -0.1158   -0.0064   -0.6057   -0.2331   -0.5878   -0.5195   -0.0360
       32 C4     3d1-       0.0075   -0.0383    0.0239   -0.0679   -0.0867    0.0353    0.0007   -0.0084   -0.0193    0.0406
       33 C5     2py        0.2036    0.4807    0.1790    0.9892    0.5306    0.0309    0.1437    0.3486    0.1063    0.1335
       34 C5     3py       -0.0204   -0.0630    0.1182    0.4871    0.0536    0.3896    0.2972    0.1702   -0.1076   -0.0918
       35 C5     3d1-      -0.0089   -0.0608    0.0167    0.0648    0.0051    0.0329    0.0148   -0.0038   -0.0244   -0.0708
       36 C6     1s        -0.0007   -0.0001   -0.0421    0.0451   -0.1375   -0.1332   -0.0729    0.1251    0.0444   -0.1603
       37 C6     2s         0.0278   -0.0003   -0.3430    0.3617   -1.0249   -0.9597   -0.3742    0.7869    0.3869   -1.0516
       38 C6     3s        -0.0018   -0.0003   -0.1282    0.1182   -0.3390   -0.2659   -0.2014    0.2747    0.0666   -0.2525
       39 C6     2py       -0.2801    0.0600   -0.2452    0.1002   -0.0781    0.7849   -1.9247    1.0419   -0.2352   -0.4689
       40 C6     3py        0.0098   -0.0018   -0.0779   -0.0191    0.1715    0.9101   -1.4787    0.9535    0.1020   -0.6902
       41 C6     2pz        0.0347   -0.0215   -0.0425    0.0472    0.1033    0.0983   -0.0928   -1.5099    1.2887   -0.3756
       42 C6     3pz        0.0133    0.0041   -0.0915    0.0989    0.0169    0.1188   -0.2625   -1.4351    1.0540    0.0462
       43 C6     3d1-       0.0161   -0.0020    0.0169   -0.0080    0.0169    0.0041   -0.0472   -0.0434   -0.0029   -0.0038
       44 C6     3d0        0.0128   -0.0048   -0.0062   -0.0001   -0.0036    0.0034   -0.0041    0.0019   -0.0505    0.0606
       45 C6     3d2+      -0.0128    0.0023   -0.0068    0.0028    0.0013   -0.0011    0.0397   -0.0504    0.0053    0.0502
       46 H1     1s        -0.2431    0.0850    0.1389   -0.1357    0.0026    0.4492    0.7891    0.9156    1.3286    1.4125
       47 H1     2s         0.0502   -0.0026    0.1948   -0.0480   -0.0882    0.2672    0.3794    0.4551    0.7240    0.8243
       48 H2     1s         0.2727   -0.1342    0.1457   -0.0389   -0.4679    0.7099    0.3120    1.6471    0.6383   -0.4533
       49 H2     2s        -0.0581    0.0116    0.1802   -0.0541   -0.2104    0.3356    0.1632    0.9450    0.3062   -0.3329
       50 H3     1s         0.0322   -0.0238    0.1929   -0.2142    0.2415    0.1300    0.0962    1.4924   -1.9888    1.1324
       51 H3     2s        -0.0204    0.0034    0.0959   -0.1009    0.1048    0.0667    0.0395    0.7682   -1.0369    0.6393
       52 H4     1s        -0.1106    0.0274    0.3643   -0.1813    0.4594   -0.2970    1.9972   -1.7642    0.5576    0.5093
       53 H4     2s         0.0413   -0.0118    0.2777   -0.1593    0.3692   -0.0899    1.1728   -1.0037    0.3206    0.2530
 
          Orbital           21        22        23    
          Energy            0.5257    0.5570    0.5801
          Occ. No.          0.0000    0.0000    0.0000
 
        1 N1     2py        0.0923   -0.1187    0.1839
        2 N1     3py        0.0930    0.0366    0.4663
        3 N1     3d1-      -0.0728    0.0520   -0.0192
        4 N2     2py        0.0267    0.1812   -0.0377
        5 N2     3py        0.4440    0.4030   -0.1785
        6 N2     3d1-       0.0042   -0.0086    0.0046
        7 C1     2py       -0.1486   -0.2893   -0.3388
        8 C1     3py       -0.6693   -0.0517   -0.7880
        9 C1     3d1-       0.0750   -0.1710    0.0121
       10 C2     1s         0.0136    0.0088    0.0197
       11 C2     2s        -0.1117    0.3726   -0.1860
       12 C2     3s        -0.0748   -0.0153   -0.0546
       13 C2     2py        0.8381    0.5661   -1.6311
       14 C2     3py        0.7439    0.9499   -1.3054
       15 C2     2pz        0.4180   -0.1273   -0.8504
       16 C2     3pz        0.6028   -0.0072   -0.9307
       17 C2     3d1-      -0.1152    0.0073   -0.0751
       18 C2     3d0        0.0482   -0.1533    0.1104
       19 C2     3d2+      -0.1152    0.0257   -0.0922
       20 C3     1s         0.1342   -0.0059    0.0295
       21 C3     2s         0.5535   -0.2857    0.3933
       22 C3     3s         0.0675    0.0536    0.0508
       23 C3     2py       -0.2919   -0.5116    1.7372
       24 C3     3py       -0.2128   -0.6621    1.5377
       25 C3     2pz        0.4364   -0.0040   -0.9513
       26 C3     3pz        0.2449    0.3968   -1.0056
       27 C3     3d1-       0.1502   -0.0220   -0.0263
       28 C3     3d0        0.0600    0.1133   -0.0984
       29 C3     3d2+      -0.1342   -0.0416    0.0040
       30 C4     2py       -0.6851    0.0628   -0.0391
       31 C4     3py       -1.2907   -0.1282    0.1361
       32 C4     3d1-      -0.0570   -0.0936    0.0497
       33 C5     2py        0.3227   -0.1747   -0.1120
       34 C5     3py        0.2480   -0.1264   -0.1099
       35 C5     3d1-       0.1464    0.0875   -0.0548
       36 C6     1s        -0.0562   -0.0316   -0.1055
       37 C6     2s        -0.3773   -0.1324   -0.5572
       38 C6     3s        -0.0700   -0.1433   -0.0849
       39 C6     2py       -0.6909    0.0627   -1.0028
       40 C6     3py       -0.8778    0.0754   -0.9340
       41 C6     2pz        0.3345   -0.6799    0.2144
       42 C6     3pz        0.2536    0.2090    0.6162
       43 C6     3d1-       0.0325   -0.0376   -0.0516
       44 C6     3d0        0.0291   -0.0353    0.0108
       45 C6     3d2+       0.0225    0.0305    0.0833
       46 H1     1s         1.0248    0.4624   -2.4636
       47 H1     2s         0.6345    0.1599   -1.3118
       48 H2     1s        -0.4385   -0.4869    2.7378
       49 H2     2s        -0.1640   -0.2220    1.4620
       50 H3     1s        -0.1422    1.1523    0.0481
       51 H3     2s        -0.0984    0.7635    0.1358
       52 H4     1s         0.8609   -0.5217    1.1531
       53 H4     2s         0.4475   -0.3632    0.5582

      Molecular orbitals for symmetry species 4: b1 
 
          Orbital            1         2         3         4         5         6         7         8         9        10    
          Energy           -0.6391   -0.5566   -0.4960   -0.4198   -0.3083    0.0907    0.2140    0.2578    0.2668    0.3057
          Occ. No.          2.0000    2.0000    2.0000    2.0000    2.0000    0.0000    0.0000    0.0000    0.0000    0.0000
 
        1 N1     2px        0.4507   -0.0267   -0.1198   -0.5340   -0.6512   -0.3523    0.0055    0.5305   -0.1535    0.5557
        2 N1     3px       -0.0365    0.0119   -0.0144   -0.0573   -0.1266   -0.1452   -0.0254    0.3997   -0.0862    0.4345
        3 N1     3d1+      -0.0029   -0.0074    0.0138    0.0169   -0.0042   -0.0221    0.0103   -0.0007   -0.0217   -0.0051
        4 N2     2px        0.0109    0.2971    0.4735   -0.2921    0.2206   -0.4479   -0.6408   -0.3920    0.4011    0.1973
        5 N2     3px       -0.0015   -0.0125   -0.0133    0.0044    0.0079   -0.1673   -0.3500   -0.2150    0.3299    0.0113
        6 N2     3d1+       0.0011    0.0251    0.0330   -0.0153    0.0069    0.0063   -0.0049    0.0002   -0.0385    0.0141
        7 C1     2px        0.1769    0.1306   -0.2656   -0.2741    0.2562    0.7543   -0.3991   -0.2210    0.8272   -0.6315
        8 C1     3px       -0.0522   -0.0313    0.0422    0.0316    0.0180    0.2868   -0.0934   -0.3194    0.5405   -0.2310
        9 C1     3d1+       0.0195   -0.0143    0.0102   -0.0259   -0.0535   -0.0080    0.0255    0.0006    0.0292    0.0652
       10 C2     2px        0.1408    0.2589   -0.3181   -0.0241    0.5059   -0.2035    0.2180    0.1211   -0.9920    0.6028
       11 C2     3px       -0.0026   -0.0270    0.0256    0.0059    0.0588   -0.0942    0.3251   -0.0900   -0.4263    0.8460
       12 C2     3d2-      -0.0120   -0.0093    0.0186    0.0180   -0.0154   -0.0374    0.0511   -0.0057   -0.0275    0.0645
       13 C2     3d1+       0.0042   -0.0130   -0.0003   -0.0233    0.0164    0.0493    0.0278    0.0220    0.0375    0.0025
       14 C3     2px        0.0668    0.3527   -0.1744    0.2828   -0.1438   -0.7954    0.0366    0.3009    0.4266   -0.5556
       15 C3     3px       -0.0098   -0.0412    0.0129   -0.0242   -0.0207   -0.3579    0.3920    0.2868    0.5499   -0.4623
       16 C3     3d2-      -0.0025   -0.0228    0.0004   -0.0190    0.0250   -0.0329    0.0525    0.0359    0.0015   -0.0186
[...]
    49 C5     1s         0.0360
    50 C5     2s         0.1667
    51 C5     3s         0.0502
    52 C5     2pz        0.1309
    53 C5     3pz        0.1665
    54 C5     3d0        0.0330
    55 C5     3d2+      -0.0030
    56 C6     1s         0.0769
    57 C6     2s         0.5799
    58 C6     3s         0.1790
    59 C6     2py        0.3311
    60 C6     3py        0.2484
    61 C6     2pz        0.1312
    62 C6     3pz        0.2097
    63 C6     3d1-      -0.0168
    64 C6     3d0        0.0068
    65 C6     3d2+       0.0120
    66 H1     1s        -0.6773
    67 H1     2s        -0.5073
    68 H2     1s        -0.6884
    69 H2     2s        -0.4853
    70 H3     1s        -0.2660
    71 H3     2s        -0.1364
    72 H4     1s        -0.5396
    73 H4     2s        -0.3849
 
 
 
      Molecular orbitals for symmetry species 2: a2 
 
 
      Orbital                 1         2         3
      Energy            -0.5520   -0.3484    0.1498
      Occ. No.           2.0000    1.9083    0.0950
 
     1 N1     3d2-       0.0177   -0.0003    0.0016
     2 N2     3d2-       0.0000    0.0000   -0.0005
     3 C1     3d2-       0.0023    0.0365   -0.0372
     4 C2     2px        0.0133    0.6251   -0.8546
     5 C2     3px        0.0031   -0.0067    0.0247
     6 C2     3d2-       0.0015    0.0039    0.0060
     7 C2     3d1+       0.0029   -0.0285   -0.0214
     8 C3     2px       -0.0041    0.6289    0.8423
     9 C3     3px       -0.0019   -0.0124   -0.0178
    10 C3     3d2-      -0.0001    0.0034   -0.0165
    11 C3     3d1+       0.0003    0.0267   -0.0359
    12 C4     3d2-      -0.0003    0.0401    0.0518
    13 C5     3d2-      -0.0000    0.0014   -0.0009
    14 C6     2px        0.6637   -0.0334    0.0380
    15 C6     3px       -0.0320   -0.0074    0.0099
    16 C6     3d2-       0.0564   -0.0019    0.0011
    17 C6     3d1+      -0.0255   -0.0008   -0.0026
    18 H4     1s         0.4461   -0.0159    0.0233
    19 H4     2s        -0.1325   -0.0001    0.0049
 
 
 
      Molecular orbitals for symmetry species 3: b2 
 
 
      Orbital                 1         2         3         4         5         6         7         8         9        10
      Energy             0.0000    0.0000    0.0000   -1.0388   -0.9817   -0.8536   -0.6780   -0.6100   -0.6013   -0.5608
      Occ. No.           2.0000    2.0000    2.0000    2.0000    2.0000    2.0000    2.0000    2.0000    2.0000    2.0000
 
     1 N1     2py        0.0002    0.0007   -0.0005    0.0469    0.2542   -0.0027   -0.2589   -0.1127   -0.4412    0.0851
     2 N1     3py        0.0003    0.0005   -0.0006   -0.0522   -0.0465   -0.0053    0.0188   -0.0206    0.0506   -0.0073
     3 N1     3d1-       0.0000   -0.0002    0.0000    0.0010    0.0166    0.0103    0.0029   -0.0037   -0.0184    0.0113
     4 N2     2py        0.0001    0.0000    0.0001    0.0077   -0.0049    0.0217   -0.0576    0.0207    0.0755    0.0023
     5 N2     3py        0.0001    0.0000    0.0001    0.0039   -0.0020   -0.0007    0.0041    0.0014   -0.0058    0.0012
     6 N2     3d1-       0.0000    0.0000    0.0000    0.0011   -0.0008    0.0030   -0.0060    0.0014    0.0071   -0.0002
     7 C1     2py        0.0003   -0.0004   -0.0016    0.1710    0.0629   -0.1496   -0.2411   -0.0825    0.1148    0.1131
     8 C1     3py        0.0003   -0.0003   -0.0013   -0.0160    0.0111    0.1568    0.1107    0.0708   -0.0277   -0.0168
     9 C1     3d1-      -0.0001    0.0000    0.0002   -0.0194    0.0090    0.0225    0.0034    0.0223   -0.0298   -0.0018
    10 C2     1s         0.0237   -0.0004   -0.9989   -0.0489   -0.0029    0.0174   -0.0086    0.0092   -0.0006    0.0021
    11 C2     2s         0.0013    0.0001    0.0029    0.4625   -0.1056   -0.5006    0.0135   -0.0807    0.1320    0.0388
    12 C2     3s         0.0004    0.0002    0.0044   -0.0337   -0.0221   -0.0273   -0.0180    0.0005    0.0150    0.0059
    13 C2     2py       -0.0002   -0.0008   -0.0011    0.0677    0.0192   -0.1189    0.1897    0.3644   -0.0247    0.0290
    14 C2     3py       -0.0003   -0.0008   -0.0012    0.0500    0.0320   -0.1145   -0.0345   -0.0639    0.0241    0.0209
    15 C2     2pz       -0.0015    0.0011   -0.0005   -0.0770    0.0759   -0.2344   -0.2933    0.2360    0.2350    0.1660
    16 C2     3pz       -0.0012    0.0012   -0.0005    0.0323   -0.0265   -0.0135    0.1072   -0.0763   -0.0332   -0.0342
    17 C2     3d1-      -0.0000    0.0000    0.0001    0.0071   -0.0019    0.0025    0.0138    0.0196    0.0077   -0.0111
    18 C2     3d0        0.0000    0.0001   -0.0001    0.0239   -0.0083    0.0006    0.0115   -0.0239   -0.0093   -0.0102
    19 C2     3d2+       0.0002   -0.0001    0.0002   -0.0105   -0.0017    0.0272    0.0055   -0.0170   -0.0101   -0.0077
    20 C3     1s         0.9989    0.0001    0.0236   -0.0493    0.0173   -0.0179    0.0000    0.0061   -0.0008    0.0054
    21 C3     2s        -0.0027    0.0004   -0.0013    0.4502   -0.1984    0.4385    0.0126   -0.0994   -0.0722   -0.0462
    22 C3     3s        -0.0040    0.0002   -0.0006   -0.0416    0.0092    0.0139   -0.0029   -0.0085   -0.0045    0.0011
    23 C3     2py        0.0010    0.0009    0.0004    0.0644   -0.0661    0.0909    0.1597    0.3480   -0.2611    0.1942
    24 C3     3py        0.0010    0.0009    0.0005    0.0499   -0.0622    0.1085   -0.0435   -0.0445    0.0406   -0.0422
    25 C3     2pz       -0.0001    0.0005   -0.0020    0.0482    0.0286   -0.2693    0.3371   -0.2672   -0.1547   -0.1313
    26 C3     3pz        0.0000    0.0004   -0.0016   -0.0658    0.0392    0.0026   -0.0859    0.0599    0.0472    0.0231
    27 C3     3d1-       0.0001    0.0000    0.0000   -0.0054    0.0010    0.0036   -0.0100   -0.0151    0.0239   -0.0188
    28 C3     3d0        0.0002    0.0000    0.0000    0.0233   -0.0061   -0.0037    0.0132   -0.0230   -0.0014   -0.0117
    29 C3     3d2+      -0.0003    0.0000   -0.0002   -0.0099    0.0069   -0.0256    0.0082   -0.0158    0.0035   -0.0081
    30 C4     2py        0.0023    0.0004   -0.0007    0.1285   -0.0529    0.1738   -0.2435   -0.0627    0.2187   -0.0722
    31 C4     3py        0.0019    0.0004   -0.0007   -0.0515    0.0388   -0.1535    0.0918    0.0508   -0.0683    0.0339
    32 C4     3d1-       0.0002    0.0000   -0.0001    0.0217   -0.0097    0.0198   -0.0090   -0.0230    0.0100   -0.0141
    33 C5     2py       -0.0005   -0.0000   -0.0002    0.0125   -0.0086    0.0693   -0.0983    0.0106    0.1031   -0.0071
    34 C5     3py       -0.0006   -0.0000   -0.0003   -0.0048    0.0023    0.0145    0.0031   -0.0054   -0.0091   -0.0013
    35 C5     3d1-       0.0000   -0.0000   -0.0000    0.0029   -0.0022    0.0094   -0.0069   -0.0042    0.0032   -0.0031
    36 C6     1s        -0.0000    0.9995   -0.0003   -0.0108   -0.0431   -0.0051    0.0038    0.0014    0.0060    0.0010
    37 C6     2s        -0.0002   -0.0012    0.0002    0.1349    0.6152    0.1887    0.1312   -0.0514    0.0222    0.0599
    38 C6     3s        -0.0001   -0.0035    0.0001   -0.0139   -0.0372    0.0017    0.0077   -0.0006    0.0114    0.0071
    39 C6     2py        0.0002   -0.0002   -0.0004   -0.0116    0.0406    0.0260    0.1584    0.1653    0.3452   -0.4047
    40 C6     3py        0.0002    0.0004   -0.0003   -0.0036    0.0352   -0.0025   -0.0295   -0.0016   -0.0341   -0.0026
    41 C6     2pz       -0.0002    0.0005   -0.0004   -0.0222    0.0075    0.0751    0.2614   -0.1674    0.3280    0.5262
    42 C6     3pz       -0.0003    0.0009   -0.0004    0.0041    0.0528    0.0242    0.0083   -0.0242   -0.0306    0.0087
    43 C6     3d1-      -0.0000   -0.0000    0.0001    0.0024   -0.0046   -0.0058   -0.0247   -0.0094   -0.0406    0.0121
    44 C6     3d0        0.0000    0.0000   -0.0000    0.0006    0.0070    0.0027    0.0078   -0.0150    0.0111    0.0534
    45 C6     3d2+       0.0000    0.0001    0.0000   -0.0014   -0.0005    0.0018    0.0133    0.0070    0.0239   -0.0124
    46 H1     1s        -0.0002   -0.0004   -0.0006    0.0432    0.0088    0.0507   -0.0120    0.2437   -0.1012    0.1627
    47 H1     2s        -0.0008   -0.0002   -0.0003   -0.0766    0.0555   -0.1170    0.0022   -0.0629    0.0417   -0.0313
    48 H2     1s         0.0001    0.0002    0.0001    0.0524    0.0145   -0.0185    0.0188    0.2683    0.0706    0.0308
    49 H2     2s        -0.0001    0.0001    0.0006   -0.0780    0.0083    0.1476   -0.0073   -0.0699   -0.0345   -0.0152
    50 H3     1s         0.0002    0.0007    0.0004    0.0311    0.0797    0.0205    0.0863   -0.0496    0.1390    0.2506
    51 H3     2s         0.0001   -0.0002    0.0002   -0.0056   -0.0834   -0.0483   -0.0762    0.0632   -0.0596   -0.1445
    52 H4     1s        -0.0001    0.0019    0.0008    0.0819    0.1982    0.0368    0.0792    0.0869    0.1156   -0.2229
    53 H4     2s        -0.0001    0.0004    0.0007    0.0086   -0.0837   -0.0361   -0.0169   -0.0238   -0.0192    0.1030
 
 
      Orbital                11        12
      Energy            -0.5131   -0.4811
      Occ. No.           2.0000    2.0000
 
     1 N1     2py        0.1622   -0.0247
     2 N1     3py       -0.0360    0.0150
     3 N1     3d1-       0.0203   -0.0059
     4 N2     2py        0.2376    0.5845
     5 N2     3py       -0.0127   -0.0201
     6 N2     3d1-       0.0185    0.0405
     7 C1     2py       -0.2885    0.0654
     8 C1     3py        0.1004   -0.0547
     9 C1     3d1-       0.0369   -0.0132
    10 C2     1s         0.0061   -0.0053
    11 C2     2s         0.0118    0.0186
    12 C2     3s         0.0072   -0.0062
    13 C2     2py        0.4238   -0.1656
    14 C2     3py       -0.0593    0.0254
    15 C2     2pz       -0.0866   -0.0339
    16 C2     3pz        0.0142    0.0387
    17 C2     3d1-       0.0509   -0.0248
    18 C2     3d0       -0.0093    0.0072
    19 C2     3d2+      -0.0100    0.0052
    20 C3     1s        -0.0056    0.0031
    21 C3     2s        -0.0638   -0.0720
    22 C3     3s        -0.0120   -0.0020
    23 C3     2py       -0.2982    0.1968
    24 C3     3py        0.0348   -0.0412
    25 C3     2pz        0.0576    0.1623
    26 C3     3pz       -0.0076    0.0127
    27 C3     3d1-       0.0482   -0.0267
    28 C3     3d0        0.0109    0.0033
    29 C3     3d2+       0.0096   -0.0003
    30 C4     2py        0.1765   -0.1456
    31 C4     3py       -0.0629    0.0844
    32 C4     3d1-       0.0053   -0.0384
    33 C5     2py        0.2325    0.4570
    34 C5     3py       -0.0240   -0.0599
    35 C5     3d1-      -0.0135   -0.0613
    36 C6     1s        -0.0007   -0.0001
    37 C6     2s         0.0287   -0.0022
    38 C6     3s        -0.0021   -0.0002
    39 C6     2py       -0.2654    0.0752
    40 C6     3py        0.0093   -0.0021
    41 C6     2pz        0.0171   -0.0220
    42 C6     3pz        0.0136    0.0034
    43 C6     3d1-       0.0155   -0.0029
    44 C6     3d0        0.0109   -0.0054
    45 C6     3d2+      -0.0121    0.0029
    46 H1     1s        -0.2452    0.1041
    47 H1     2s         0.0498   -0.0063
    48 H2     1s         0.2621   -0.1538
    49 H2     2s        -0.0543    0.0149
    50 H3     1s         0.0232   -0.0252
    51 H3     2s        -0.0161    0.0041
    52 H4     1s        -0.1023    0.0331
    53 H4     2s         0.0369   -0.0137
 
 
 
      Molecular orbitals for symmetry species 4: b1 
 
 
      Orbital                 1         2         3         4         5         6         7         8
      Energy            -0.5877   -0.5299   -0.4843   -0.4374   -0.3338    0.1307    0.3294    0.4445
      Occ. No.           2.0000    1.9647    1.9452    1.9969    1.9134    0.0908    0.0532    0.0324
 
     1 N1     2px        0.0848   -0.1205    0.1041   -0.9285   -0.2144   -0.3196    0.1918   -0.2233
     2 N1     3px       -0.0756   -0.0295    0.0329   -0.0925   -0.0770   -0.0839    0.0512   -0.0704
     3 N1     3d1+       0.0084   -0.0080    0.0068    0.0135   -0.0129   -0.0141    0.0123   -0.0178
     4 N2     2px        0.0020    0.1001    0.5329    0.0141    0.3571   -0.4019   -0.6852   -0.2185
     5 N2     3px        0.0005   -0.0075   -0.0312    0.0038   -0.0101    0.0699    0.1152    0.0458
     6 N2     3d1+      -0.0001    0.0101    0.0380   -0.0001    0.0155   -0.0056   -0.0009    0.0028
     7 C1     2px       -0.0109    0.2239   -0.2007   -0.2140    0.3943    0.6065   -0.4887    0.6648
     8 C1     3px       -0.0108   -0.0402    0.0180    0.0712   -0.0050    0.0315   -0.0395    0.0805
     9 C1     3d1+       0.0067   -0.0249    0.0177   -0.0479   -0.0264   -0.0280    0.0146   -0.0115
    10 C2     2px        0.0276    0.4283   -0.2779    0.0651    0.3977   -0.2144    0.4492   -0.8368
    11 C2     3px        0.0212   -0.0290    0.0049    0.0396    0.0327    0.0388   -0.0047    0.0048
    12 C2     3d2-       0.0012   -0.0137    0.0120    0.0154   -0.0218   -0.0321    0.0195   -0.0188
    13 C2     3d1+       0.0012   -0.0115   -0.0048   -0.0083    0.0281    0.0518   -0.0267    0.0039
    14 C3     2px       -0.0041    0.4284   -0.0410    0.0189   -0.3215   -0.5970    0.0141    0.8032
    15 C3     3px       -0.0059   -0.0520    0.0078   -0.0172   -0.0032    0.0023    0.0100    0.0093
    16 C3     3d2-       0.0005   -0.0195   -0.0084    0.0019    0.0279   -0.0115    0.0144   -0.0027
    17 C3     3d1+      -0.0003    0.0064   -0.0199    0.0037    0.0395   -0.0236    0.0278   -0.0024
    18 C4     2px       -0.0049    0.3164    0.1732   -0.0360   -0.5223    0.5317   -0.3983   -0.6673
    19 C4     3px        0.0005   -0.0655   -0.0041   -0.0093   -0.0029   -0.0567   -0.0144   -0.0235
    20 C4     3d1+       0.0002    0.0089   -0.0254    0.0032   -0.0133   -0.0307   -0.0211    0.0171
    21 C5     2px       -0.0016    0.1449    0.4861   -0.0086    0.1822    0.2958    0.8042    0.3424
    22 C5     3px        0.0002   -0.0258   -0.0844    0.0014    0.0068   -0.0534   -0.0709   -0.0179
    23 C5     3d1+      -0.0006    0.0103   -0.0320   -0.0026   -0.0539    0.0228   -0.0327   -0.0340
    24 C6     2px        0.6418   -0.0112    0.0092    0.1484   -0.0145    0.0314   -0.0166    0.0173
    25 C6     3px       -0.0326    0.0090   -0.0080    0.0502    0.0147    0.0228   -0.0105    0.0093
    26 C6     3d2-       0.0490    0.0085   -0.0068    0.0683    0.0135    0.0178   -0.0101    0.0103
    27 C6     3d1+      -0.0258    0.0012   -0.0010    0.0165    0.0017    0.0029   -0.0019    0.0019
    28 H4     1s         0.4569    0.0377   -0.0286    0.2986    0.0606    0.0771   -0.0553    0.0717
    29 H4     2s        -0.1080    0.0143   -0.0092    0.0189    0.0162    0.0042   -0.0104    0.0162
--
 
      Von Neumann Entropy (Root   1) =  0.83911
 

      Mulliken population analysis for root number:  1
      -----------------------------------------------
 
 
++    Molecular charges:
      ------------------
 
      Mulliken charges per centre and basis function type
      ---------------------------------------------------
 
                N1      N2      C1      C2      C3      C4      C5      C6      H1      H2      H3      H4    
      1s       1.9993  2.0014  1.9987  1.9989  1.9989  1.9985  1.9995  1.9994  0.6148  0.6016  0.5500  0.7407
      2s       1.3892  1.7809  1.0755  1.1889  1.1612  1.0546  1.1001  1.1917  0.0365  0.0575  0.0686  0.0639
      2px      1.7634  1.0991  0.8818  1.0586  0.9572  1.0661  0.8737  1.1942  0.0000  0.0000  0.0000  0.0000
      2pz      0.9352  1.2307  0.7017  0.9145  0.9501  0.6553  0.7751  1.2086  0.0000  0.0000  0.0000  0.0000
      2py      1.0333  1.0945  0.7916  1.0078  1.0135  0.7548  0.8552  0.9580  0.0000  0.0000  0.0000  0.0000
      3s      -0.0064  0.0060 -0.0298 -0.0312 -0.0295 -0.0119 -0.0376 -0.0161  0.0000  0.0000  0.0000  0.0000
      3px     -0.1229 -0.0050 -0.0268 -0.0107 -0.0166 -0.0325 -0.0120 -0.0085  0.0000  0.0000  0.0000  0.0000
      3pz     -0.0255  0.0521  0.1176  0.1064  0.0786  0.1361  0.1506  0.0206  0.0000  0.0000  0.0000  0.0000
      3py     -0.0255 -0.0050  0.1750  0.0503  0.0625  0.1272  0.0014  0.0324  0.0000  0.0000  0.0000  0.0000
      3d2+     0.0108  0.0000  0.0160  0.0154  0.0154  0.0154  0.0002  0.0171  0.0000  0.0000  0.0000  0.0000
      3d1+     0.0127  0.0227  0.0633  0.0209  0.0281  0.0216  0.0643  0.0101  0.0000  0.0000  0.0000  0.0000
      3d0      0.0245  0.0155  0.0492  0.0261  0.0264  0.0468  0.0267  0.0418  0.0000  0.0000  0.0000  0.0000
      3d1-     0.0258  0.0254  0.0535  0.0464  0.0495  0.0463  0.0600  0.0270  0.0000  0.0000  0.0000  0.0000
      3d2-     0.0114  0.0000  0.0278  0.0120  0.0136  0.0321  0.0002  0.0688  0.0000  0.0000  0.0000  0.0000
      Total    7.0254  7.3183  5.8951  6.4043  6.3089  5.9103  5.8576  6.7453  0.6513  0.6591  0.6186  0.8046
 
      N-E     -0.0254 -0.3183  0.1049 -0.4043 -0.3089  0.0897  0.1424 -0.7453  0.3487  0.3409  0.3814  0.1954
 
      Total electronic charge=   78.000000
 
      Total            charge=   -0.000000
--
 
 

      Expectation values of various properties for root number:  1
      -----------------------------------------------------------
 
 
++    Molecular properties:
      ---------------------
 
      Charge (e):
                      =   -0.0000
      Dipole Moment (debye):
      Origin of the operator (angstrom)=    0.0000    0.0000    0.0000
                   X=  0.0000E+00               Y=  0.0000E+00               Z=  8.0383E+00           Total=  8.0383E+00
      Quadrupole Moment (debye*angstrom):
      Origin of the operator (angstrom)=    0.0000    0.0000    0.0940
                  XX= -7.0432E+01              XY=  0.0000E+00              XZ=  0.0000E+00              YY= -5.8466E+01
                  YZ=  0.0000E+00              ZZ= -8.2879E+01
      In traceless form (debye*angstrom)
                  XX=  2.4059E-01              XY=  0.0000E+00              XZ=  0.0000E+00              YY=  1.8190E+01
                  YZ=  0.0000E+00              ZZ= -1.8431E+01
--
 

      LoProp population analysis for root number:  1
      -----------------------------------------------
 
 
++    LoProp analysis:
      ----------------
 
 
 
++    Static properties:
      ------------------
 
 
      LoProp Charges per center
 

                   N1       N2       C1       C2       C3       C4       C5       C6       H1       H2    
      Nuclear      7.0000   7.0000   6.0000   6.0000   6.0000   6.0000   6.0000   6.0000   1.0000   1.0000
      Electronic  -7.2314  -7.3160  -5.8560  -6.1649  -6.0819  -6.0719  -5.8160  -6.1927  -0.8734  -0.8761
 
      Total       -0.2314  -0.3160   0.1440  -0.1649  -0.0819  -0.0719   0.1840  -0.1927   0.1266   0.1239
 

                   H3       H4    
      Nuclear      1.0000   1.0000
      Electronic  -0.8659  -0.8997
 
      Total        0.1341   0.1003
--
 
 
      Natural Bond Order analysis for root number:  1
 
++    Natural Bond Order analysis
      ---------------------------
      Based on LoProp computed density
      -------------------------------------------------------------------------------------
      Atom A:Gen.  Atom B:Gen.  Bond Order
      -------------------------------------------------------------------------------------
      NBO located      1.001 non-bonded electrons on atom N1    :E  
      NBO located      0.994 non-bonded electrons on atom N2    :E  
      The remaining   44.998 electrons are to be considered as diffuse
--
 
--
 
 
      Input file to MOLDEN was generated!
 
      Average orbitals are written to the RASORB file
      Natural orbitals for root   1 are written to the RASORB.1 file
      Spin density orbitals for root   1 are written to the SPDORB.1 file
 
--- Stop Module: rasscf at Fri Dec  5 01:09:41 2025 /rc=_RC_ALL_IS_WELL_ ---
*** files: dmabn.LprOrb dmabn.rasscf.molden dmabn.RasOrb dmabn.RasOrb.1 dmabn.SpdOrb.1 xmldump
    saved to directory /home/charlie/input_examples/molcas/dmabn
--- Module rasscf spent 8 seconds ---

.##################.
.# Happy landing! #.
.##################.

    Timing: Wall=21.85 User=128.29 System=33.83
