[Molden Format]
[N_Atoms]
 21
[Atoms] (AU)
N1          1      7           0.00000000      0.00000000      4.78476133
N2          2      7           0.00000000      0.00000000     -8.11066178
C1          3      6           0.00000000      0.00000000      2.16183529
C2          4      6           0.00000000      2.24309309      0.77478336
C2          5      6           0.00000000     -2.24309309      0.77478336
C3          6      6           0.00000000      2.23175479     -1.85003213
C3          7      6           0.00000000     -2.23175479     -1.85003213
C4          8      6           0.00000000      0.00000000     -3.19173060
C5          9      6           0.00000000      0.00000000     -5.92426018
C6         10      6           0.00000000      2.43773369      6.06409917
C6         11      6           0.00000000     -2.43773369      6.06409917
H1         12      1           0.00000000      4.00430855     -2.85347141
H1         13      1           0.00000000     -4.00430855     -2.85347141
H2         14      1           0.00000000      4.03265430      1.72153143
H2         15      1           0.00000000     -4.03265430      1.72153143
H3         16      1           0.00000000      2.14671756      8.08798518
H3         17      1           0.00000000     -2.14671756      8.08798518
H4         18      1           1.57791300      3.66226993      5.51041234
H4         19      1          -1.57791300      3.66226993      5.51041234
H4         20      1          -1.57791300     -3.66226993      5.51041234
H4         21      1           1.57791300     -3.66226993      5.51041234
[5D]
[Charge] (Mulliken)
 -2.542427365637412E-002
 -0.318250344099050
 0.104927082591154
 -0.808506275233277
 -0.808506275233277
 -0.617766020289167
 -0.617766020289167
 8.972624917295313E-002
 0.142382461222614
 -1.49060516603034
 -1.49060516603034
 0.697305810440093
 0.697305810440093
 0.681891846331923
 0.681891846331923
 0.762777146713916
 0.762777146713916
 0.781541482834497
 0.781541482834497
 0.781541482834497
 0.781541482834497
[GTO] (AU)
   1
   s  10
  8.104071600E+03  8.100799946E-04
  1.216021500E+03  6.076569959E-03
  2.772342800E+02  3.209525979E-02
  7.690402300E+01  1.175025592E-01
  2.587441900E+01  2.937474080E-01
  9.346767000E+00  4.512542270E-01
  3.579794000E+00  2.425981284E-01
  7.396100000E-01  1.346261991E-02
  2.226170000E-01 -3.811799975E-03
  7.791600000E-02  1.387639991E-03
   s  10
  8.104071600E+03 -1.793000020E-04
  1.216021500E+03 -1.379800015E-03
  2.772342800E+02 -7.133200079E-03
  7.690402300E+01 -2.849610032E-02
  2.587441900E+01 -7.289330081E-02
  9.346767000E+00 -1.684632019E-01
  3.579794000E+00 -1.048813012E-01
  7.396100000E-01  5.817723164E-01
  2.226170000E-01  5.210238958E-01
  7.791600000E-02  3.664056041E-02
   s  10
  8.104071600E+03  1.738699903E-04
  1.216021500E+03  1.448149919E-03
  2.772342800E+02  6.672789628E-03
  7.690402300E+01  3.158097824E-02
  2.587441900E+01  6.343752647E-02
  9.346767000E+00  2.220319576E-01
  3.579794000E+00  3.023656832E-02
  7.396100000E-01 -1.252481930E+00
  2.226170000E-01  7.044415408E-01
  7.791600000E-02  6.100064960E-01
   p   6
  2.686898700E+01  1.442171005E-02
  5.991227000E+00  9.084742031E-02
  1.750842000E+00  2.977955210E-01
  5.605110000E-01  4.832808116E-01
  1.759480000E-01  3.040086410E-01
  6.158200000E-02  8.993805031E-02
   p   6
  2.686898700E+01 -1.147819958E-02
  5.991227000E+00 -6.512129764E-02
  1.750842000E+00 -2.896589895E-01
  5.605110000E-01 -3.157871886E-01
  1.759480000E-01  2.199860920E-01
  6.158200000E-02  8.089739707E-01
   d   3
  1.886200000E+00  3.284978408E-01
  5.054000000E-01  7.192989218E-01
  1.354000000E-01  1.546076804E-01
 
   2
   s  10
  8.104071600E+03  8.100799946E-04
  1.216021500E+03  6.076569959E-03
  2.772342800E+02  3.209525979E-02
  7.690402300E+01  1.175025592E-01
  2.587441900E+01  2.937474080E-01
  9.346767000E+00  4.512542270E-01
  3.579794000E+00  2.425981284E-01
  7.396100000E-01  1.346261991E-02
  2.226170000E-01 -3.811799975E-03
  7.791600000E-02  1.387639991E-03
   s  10
  8.104071600E+03 -1.793000020E-04
  1.216021500E+03 -1.379800015E-03
  2.772342800E+02 -7.133200079E-03
  7.690402300E+01 -2.849610032E-02
  2.587441900E+01 -7.289330081E-02
  9.346767000E+00 -1.684632019E-01
  3.579794000E+00 -1.048813012E-01
  7.396100000E-01  5.817723164E-01
  2.226170000E-01  5.210238958E-01
  7.791600000E-02  3.664056041E-02
   s  10
  8.104071600E+03  1.738699903E-04
  1.216021500E+03  1.448149919E-03
  2.772342800E+02  6.672789628E-03
  7.690402300E+01  3.158097824E-02
  2.587441900E+01  6.343752647E-02
  9.346767000E+00  2.220319576E-01
  3.579794000E+00  3.023656832E-02
  7.396100000E-01 -1.252481930E+00
  2.226170000E-01  7.044415408E-01
  7.791600000E-02  6.100064960E-01
   p   6
  2.686898700E+01  1.442171005E-02
  5.991227000E+00  9.084742031E-02
  1.750842000E+00  2.977955210E-01
  5.605110000E-01  4.832808116E-01
  1.759480000E-01  3.040086410E-01
  6.158200000E-02  8.993805031E-02
   p   6
  2.686898700E+01 -1.147819958E-02
  5.991227000E+00 -6.512129764E-02
  1.750842000E+00 -2.896589895E-01
  5.605110000E-01 -3.157871886E-01
  1.759480000E-01  2.199860920E-01
  6.158200000E-02  8.089739707E-01
   d   3
  1.886200000E+00  3.284978408E-01
  5.054000000E-01  7.192989218E-01
  1.354000000E-01  1.546076804E-01
 
   3
   s  10
  5.240635300E+03  9.370599866E-04
  7.822047900E+02  7.228659896E-03
  1.783508300E+02  3.634369948E-02
  5.081594200E+01  1.306288781E-01
  1.682356200E+01  3.188985054E-01
  6.175776000E+00  4.390794037E-01
  2.418049000E+00  2.144773669E-01
  5.119000000E-01  9.529119863E-03
  1.565900000E-01 -2.422299965E-03
  5.480600000E-02  8.592699877E-04
   s  10
  5.240635300E+03 -2.013999970E-04
  7.822047900E+02 -1.591299976E-03
  1.783508300E+02 -7.857899883E-03
  5.081594200E+01 -3.078559954E-02
  1.682356200E+01 -7.776049884E-02
  6.175776000E+00 -1.654797975E-01
  2.418049000E+00 -9.353159860E-02
  5.119000000E-01  5.910679012E-01
  1.565900000E-01  5.101798424E-01
  5.480600000E-02  3.602094946E-02
   s  10
  5.240635300E+03  1.894800270E-04
  7.822047900E+02  1.599170228E-03
  1.783508300E+02  7.158711020E-03
  5.081594200E+01  3.255102464E-02
  1.682356200E+01  6.671215950E-02
  6.175776000E+00  2.107147000E-01
  2.418049000E+00  1.606341229E-02
  5.119000000E-01 -1.206081172E+00
  1.565900000E-01  6.235919888E-01
  5.480600000E-02  6.755538762E-01
   p   6
  1.884180000E+01  1.363248000E-02
  4.159240000E+00  8.381052999E-02
  1.206710000E+00  2.857919499E-01
  3.855400000E-01  4.864161999E-01
  1.219400000E-01  3.147641699E-01
  4.267900000E-02  9.093436998E-02
   p   6
  1.884180000E+01 -1.270119972E-02
  4.159240000E+00 -6.726639849E-02
  1.206710000E+00 -3.404230924E-01
  3.855400000E-01 -3.747774916E-01
  1.219400000E-01  4.228405505E-01
  4.267900000E-02  6.428391056E-01
   d   3
  1.283800000E+00  3.208788489E-01
  3.440000000E-01  7.233137275E-01
  9.220000000E-02  1.572138094E-01
 
   4
   s  10
  5.240635300E+03  9.370599866E-04
  7.822047900E+02  7.228659896E-03
  1.783508300E+02  3.634369948E-02
  5.081594200E+01  1.306288781E-01
  1.682356200E+01  3.188985054E-01
  6.175776000E+00  4.390794037E-01
  2.418049000E+00  2.144773669E-01
  5.119000000E-01  9.529119863E-03
  1.565900000E-01 -2.422299965E-03
  5.480600000E-02  8.592699877E-04
   s  10
  5.240635300E+03 -2.013999970E-04
  7.822047900E+02 -1.591299976E-03
  1.783508300E+02 -7.857899883E-03
  5.081594200E+01 -3.078559954E-02
  1.682356200E+01 -7.776049884E-02
  6.175776000E+00 -1.654797975E-01
  2.418049000E+00 -9.353159860E-02
  5.119000000E-01  5.910679012E-01
  1.565900000E-01  5.101798424E-01
  5.480600000E-02  3.602094946E-02
   s  10
  5.240635300E+03  1.894800270E-04
  7.822047900E+02  1.599170228E-03
  1.783508300E+02  7.158711020E-03
  5.081594200E+01  3.255102464E-02
  1.682356200E+01  6.671215950E-02
  6.175776000E+00  2.107147000E-01
  2.418049000E+00  1.606341229E-02
  5.119000000E-01 -1.206081172E+00
  1.565900000E-01  6.235919888E-01
  5.480600000E-02  6.755538762E-01
   p   6
  1.884180000E+01  1.363248000E-02
  4.159240000E+00  8.381052999E-02
  1.206710000E+00  2.857919499E-01
  3.855400000E-01  4.864161999E-01
  1.219400000E-01  3.147641699E-01
  4.267900000E-02  9.093436998E-02
   p   6
  1.884180000E+01 -1.270119972E-02
  4.159240000E+00 -6.726639849E-02
  1.206710000E+00 -3.404230924E-01
  3.855400000E-01 -3.747774916E-01
  1.219400000E-01  4.228405505E-01
  4.267900000E-02  6.428391056E-01
   d   3
  1.283800000E+00  3.208788489E-01
  3.440000000E-01  7.233137275E-01
  9.220000000E-02  1.572138094E-01
 
   5
   s  10
  5.240635300E+03  9.370599866E-04
  7.822047900E+02  7.228659896E-03
  1.783508300E+02  3.634369948E-02
  5.081594200E+01  1.306288781E-01
  1.682356200E+01  3.188985054E-01
  6.175776000E+00  4.390794037E-01
  2.418049000E+00  2.144773669E-01
  5.119000000E-01  9.529119863E-03
  1.565900000E-01 -2.422299965E-03
  5.480600000E-02  8.592699877E-04
   s  10
  5.240635300E+03 -2.013999970E-04
  7.822047900E+02 -1.591299976E-03
  1.783508300E+02 -7.857899883E-03
  5.081594200E+01 -3.078559954E-02
  1.682356200E+01 -7.776049884E-02
  6.175776000E+00 -1.654797975E-01
  2.418049000E+00 -9.353159860E-02
  5.119000000E-01  5.910679012E-01
  1.565900000E-01  5.101798424E-01
  5.480600000E-02  3.602094946E-02
   s  10
  5.240635300E+03  1.894800270E-04
  7.822047900E+02  1.599170228E-03
  1.783508300E+02  7.158711020E-03
  5.081594200E+01  3.255102464E-02
  1.682356200E+01  6.671215950E-02
  6.175776000E+00  2.107147000E-01
  2.418049000E+00  1.606341229E-02
  5.119000000E-01 -1.206081172E+00
  1.565900000E-01  6.235919888E-01
  5.480600000E-02  6.755538762E-01
   p   6
  1.884180000E+01  1.363248000E-02
  4.159240000E+00  8.381052999E-02
  1.206710000E+00  2.857919499E-01
  3.855400000E-01  4.864161999E-01
  1.219400000E-01  3.147641699E-01
  4.267900000E-02  9.093436998E-02
   p   6
  1.884180000E+01 -1.270119972E-02
  4.159240000E+00 -6.726639849E-02
  1.206710000E+00 -3.404230924E-01
  3.855400000E-01 -3.747774916E-01
  1.219400000E-01  4.228405505E-01
  4.267900000E-02  6.428391056E-01
   d   3
  1.283800000E+00  3.208788489E-01
  3.440000000E-01  7.233137275E-01
  9.220000000E-02  1.572138094E-01
 
   6
   s  10
  5.240635300E+03  9.370599866E-04
  7.822047900E+02  7.228659896E-03
  1.783508300E+02  3.634369948E-02
  5.081594200E+01  1.306288781E-01
  1.682356200E+01  3.188985054E-01
  6.175776000E+00  4.390794037E-01
  2.418049000E+00  2.144773669E-01
  5.119000000E-01  9.529119863E-03
  1.565900000E-01 -2.422299965E-03
  5.480600000E-02  8.592699877E-04
   s  10
  5.240635300E+03 -2.013999970E-04
  7.822047900E+02 -1.591299976E-03
  1.783508300E+02 -7.857899883E-03
  5.081594200E+01 -3.078559954E-02
  1.682356200E+01 -7.776049884E-02
  6.175776000E+00 -1.654797975E-01
  2.418049000E+00 -9.353159860E-02
  5.119000000E-01  5.910679012E-01
  1.565900000E-01  5.101798424E-01
  5.480600000E-02  3.602094946E-02
   s  10
  5.240635300E+03  1.894800270E-04
  7.822047900E+02  1.599170228E-03
  1.783508300E+02  7.158711020E-03
  5.081594200E+01  3.255102464E-02
  1.682356200E+01  6.671215950E-02
  6.175776000E+00  2.107147000E-01
  2.418049000E+00  1.606341229E-02
  5.119000000E-01 -1.206081172E+00
  1.565900000E-01  6.235919888E-01
  5.480600000E-02  6.755538762E-01
   p   6
  1.884180000E+01  1.363248000E-02
  4.159240000E+00  8.381052999E-02
  1.206710000E+00  2.857919499E-01
  3.855400000E-01  4.864161999E-01
  1.219400000E-01  3.147641699E-01
  4.267900000E-02  9.093436998E-02
   p   6
  1.884180000E+01 -1.270119972E-02
  4.159240000E+00 -6.726639849E-02
  1.206710000E+00 -3.404230924E-01
  3.855400000E-01 -3.747774916E-01
  1.219400000E-01  4.228405505E-01
  4.267900000E-02  6.428391056E-01
   d   3
  1.283800000E+00  3.208788489E-01
  3.440000000E-01  7.233137275E-01
  9.220000000E-02  1.572138094E-01
 
   7
   s  10
  5.240635300E+03  9.370599866E-04
  7.822047900E+02  7.228659896E-03
  1.783508300E+02  3.634369948E-02
  5.081594200E+01  1.306288781E-01
  1.682356200E+01  3.188985054E-01
  6.175776000E+00  4.390794037E-01
  2.418049000E+00  2.144773669E-01
  5.119000000E-01  9.529119863E-03
  1.565900000E-01 -2.422299965E-03
  5.480600000E-02  8.592699877E-04
   s  10
  5.240635300E+03 -2.013999970E-04
  7.822047900E+02 -1.591299976E-03
  1.783508300E+02 -7.857899883E-03
  5.081594200E+01 -3.078559954E-02
  1.682356200E+01 -7.776049884E-02
  6.175776000E+00 -1.654797975E-01
  2.418049000E+00 -9.353159860E-02
  5.119000000E-01  5.910679012E-01
  1.565900000E-01  5.101798424E-01
  5.480600000E-02  3.602094946E-02
   s  10
  5.240635300E+03  1.894800270E-04
  7.822047900E+02  1.599170228E-03
  1.783508300E+02  7.158711020E-03
  5.081594200E+01  3.255102464E-02
  1.682356200E+01  6.671215950E-02
  6.175776000E+00  2.107147000E-01
  2.418049000E+00  1.606341229E-02
  5.119000000E-01 -1.206081172E+00
  1.565900000E-01  6.235919888E-01
  5.480600000E-02  6.755538762E-01
   p   6
  1.884180000E+01  1.363248000E-02
  4.159240000E+00  8.381052999E-02
  1.206710000E+00  2.857919499E-01
  3.855400000E-01  4.864161999E-01
  1.219400000E-01  3.147641699E-01
  4.267900000E-02  9.093436998E-02
   p   6
  1.884180000E+01 -1.270119972E-02
  4.159240000E+00 -6.726639849E-02
  1.206710000E+00 -3.404230924E-01
  3.855400000E-01 -3.747774916E-01
  1.219400000E-01  4.228405505E-01
  4.267900000E-02  6.428391056E-01
   d   3
  1.283800000E+00  3.208788489E-01
  3.440000000E-01  7.233137275E-01
  9.220000000E-02  1.572138094E-01
 
   8
   s  10
  5.240635300E+03  9.370599866E-04
  7.822047900E+02  7.228659896E-03
  1.783508300E+02  3.634369948E-02
  5.081594200E+01  1.306288781E-01
  1.682356200E+01  3.188985054E-01
  6.175776000E+00  4.390794037E-01
  2.418049000E+00  2.144773669E-01
  5.119000000E-01  9.529119863E-03
  1.565900000E-01 -2.422299965E-03
  5.480600000E-02  8.592699877E-04
   s  10
  5.240635300E+03 -2.013999970E-04
  7.822047900E+02 -1.591299976E-03
  1.783508300E+02 -7.857899883E-03
  5.081594200E+01 -3.078559954E-02
  1.682356200E+01 -7.776049884E-02
  6.175776000E+00 -1.654797975E-01
  2.418049000E+00 -9.353159860E-02
  5.119000000E-01  5.910679012E-01
  1.565900000E-01  5.101798424E-01
  5.480600000E-02  3.602094946E-02
   s  10
  5.240635300E+03  1.894800270E-04
  7.822047900E+02  1.599170228E-03
  1.783508300E+02  7.158711020E-03
  5.081594200E+01  3.255102464E-02
  1.682356200E+01  6.671215950E-02
  6.175776000E+00  2.107147000E-01
  2.418049000E+00  1.606341229E-02
  5.119000000E-01 -1.206081172E+00
  1.565900000E-01  6.235919888E-01
  5.480600000E-02  6.755538762E-01
   p   6
  1.884180000E+01  1.363248000E-02
  4.159240000E+00  8.381052999E-02
  1.206710000E+00  2.857919499E-01
  3.855400000E-01  4.864161999E-01
  1.219400000E-01  3.147641699E-01
  4.267900000E-02  9.093436998E-02
   p   6
  1.884180000E+01 -1.270119972E-02
  4.159240000E+00 -6.726639849E-02
  1.206710000E+00 -3.404230924E-01
  3.855400000E-01 -3.747774916E-01
  1.219400000E-01  4.228405505E-01
  4.267900000E-02  6.428391056E-01
   d   3
  1.283800000E+00  3.208788489E-01
  3.440000000E-01  7.233137275E-01
  9.220000000E-02  1.572138094E-01
 
   9
   s  10
  5.240635300E+03  9.370599866E-04
  7.822047900E+02  7.228659896E-03
  1.783508300E+02  3.634369948E-02
  5.081594200E+01  1.306288781E-01
  1.682356200E+01  3.188985054E-01
  6.175776000E+00  4.390794037E-01
  2.418049000E+00  2.144773669E-01
  5.119000000E-01  9.529119863E-03
  1.565900000E-01 -2.422299965E-03
  5.480600000E-02  8.592699877E-04
   s  10
  5.240635300E+03 -2.013999970E-04
  7.822047900E+02 -1.591299976E-03
  1.783508300E+02 -7.857899883E-03
  5.081594200E+01 -3.078559954E-02
  1.682356200E+01 -7.776049884E-02
  6.175776000E+00 -1.654797975E-01
  2.418049000E+00 -9.353159860E-02
  5.119000000E-01  5.910679012E-01
  1.565900000E-01  5.101798424E-01
  5.480600000E-02  3.602094946E-02
   s  10
  5.240635300E+03  1.894800270E-04
  7.822047900E+02  1.599170228E-03
  1.783508300E+02  7.158711020E-03
  5.081594200E+01  3.255102464E-02
  1.682356200E+01  6.671215950E-02
  6.175776000E+00  2.107147000E-01
  2.418049000E+00  1.606341229E-02
  5.119000000E-01 -1.206081172E+00
  1.565900000E-01  6.235919888E-01
  5.480600000E-02  6.755538762E-01
   p   6
  1.884180000E+01  1.363248000E-02
  4.159240000E+00  8.381052999E-02
  1.206710000E+00  2.857919499E-01
  3.855400000E-01  4.864161999E-01
  1.219400000E-01  3.147641699E-01
  4.267900000E-02  9.093436998E-02
   p   6
  1.884180000E+01 -1.270119972E-02
  4.159240000E+00 -6.726639849E-02
  1.206710000E+00 -3.404230924E-01
  3.855400000E-01 -3.747774916E-01
  1.219400000E-01  4.228405505E-01
  4.267900000E-02  6.428391056E-01
   d   3
  1.283800000E+00  3.208788489E-01
  3.440000000E-01  7.233137275E-01
  9.220000000E-02  1.572138094E-01
 
  10
   s  10
  5.240635300E+03  9.370599866E-04
  7.822047900E+02  7.228659896E-03
  1.783508300E+02  3.634369948E-02
  5.081594200E+01  1.306288781E-01
  1.682356200E+01  3.188985054E-01
  6.175776000E+00  4.390794037E-01
  2.418049000E+00  2.144773669E-01
  5.119000000E-01  9.529119863E-03
  1.565900000E-01 -2.422299965E-03
  5.480600000E-02  8.592699877E-04
   s  10
  5.240635300E+03 -2.013999970E-04
  7.822047900E+02 -1.591299976E-03
  1.783508300E+02 -7.857899883E-03
  5.081594200E+01 -3.078559954E-02
  1.682356200E+01 -7.776049884E-02
  6.175776000E+00 -1.654797975E-01
  2.418049000E+00 -9.353159860E-02
  5.119000000E-01  5.910679012E-01
  1.565900000E-01  5.101798424E-01
  5.480600000E-02  3.602094946E-02
   s  10
  5.240635300E+03  1.894800270E-04
  7.822047900E+02  1.599170228E-03
  1.783508300E+02  7.158711020E-03
  5.081594200E+01  3.255102464E-02
  1.682356200E+01  6.671215950E-02
  6.175776000E+00  2.107147000E-01
  2.418049000E+00  1.606341229E-02
  5.119000000E-01 -1.206081172E+00
  1.565900000E-01  6.235919888E-01
  5.480600000E-02  6.755538762E-01
   p   6
  1.884180000E+01  1.363248000E-02
  4.159240000E+00  8.381052999E-02
  1.206710000E+00  2.857919499E-01
  3.855400000E-01  4.864161999E-01
  1.219400000E-01  3.147641699E-01
  4.267900000E-02  9.093436998E-02
   p   6
  1.884180000E+01 -1.270119972E-02
  4.159240000E+00 -6.726639849E-02
  1.206710000E+00 -3.404230924E-01
  3.855400000E-01 -3.747774916E-01
  1.219400000E-01  4.228405505E-01
  4.267900000E-02  6.428391056E-01
   d   3
  1.283800000E+00  3.208788489E-01
  3.440000000E-01  7.233137275E-01
  9.220000000E-02  1.572138094E-01
 
  11
   s  10
  5.240635300E+03  9.370599866E-04
  7.822047900E+02  7.228659896E-03
  1.783508300E+02  3.634369948E-02
  5.081594200E+01  1.306288781E-01
  1.682356200E+01  3.188985054E-01
  6.175776000E+00  4.390794037E-01
  2.418049000E+00  2.144773669E-01
  5.119000000E-01  9.529119863E-03
  1.565900000E-01 -2.422299965E-03
  5.480600000E-02  8.592699877E-04
   s  10
  5.240635300E+03 -2.013999970E-04
  7.822047900E+02 -1.591299976E-03
  1.783508300E+02 -7.857899883E-03
  5.081594200E+01 -3.078559954E-02
  1.682356200E+01 -7.776049884E-02
  6.175776000E+00 -1.654797975E-01
  2.418049000E+00 -9.353159860E-02
  5.119000000E-01  5.910679012E-01
  1.565900000E-01  5.101798424E-01
  5.480600000E-02  3.602094946E-02
   s  10
  5.240635300E+03  1.894800270E-04
  7.822047900E+02  1.599170228E-03
  1.783508300E+02  7.158711020E-03
  5.081594200E+01  3.255102464E-02
  1.682356200E+01  6.671215950E-02
  6.175776000E+00  2.107147000E-01
  2.418049000E+00  1.606341229E-02
  5.119000000E-01 -1.206081172E+00
  1.565900000E-01  6.235919888E-01
  5.480600000E-02  6.755538762E-01
   p   6
  1.884180000E+01  1.363248000E-02
  4.159240000E+00  8.381052999E-02
  1.206710000E+00  2.857919499E-01
  3.855400000E-01  4.864161999E-01
  1.219400000E-01  3.147641699E-01
  4.267900000E-02  9.093436998E-02
   p   6
  1.884180000E+01 -1.270119972E-02
  4.159240000E+00 -6.726639849E-02
  1.206710000E+00 -3.404230924E-01
  3.855400000E-01 -3.747774916E-01
  1.219400000E-01  4.228405505E-01
  4.267900000E-02  6.428391056E-01
   d   3
  1.283800000E+00  3.208788489E-01
  3.440000000E-01  7.233137275E-01
  9.220000000E-02  1.572138094E-01
 
  12
   s   7
  8.263637400E+01  2.564129993E-03
  1.240955800E+01  1.921260995E-02
  2.823854000E+00  9.505117973E-02
  7.976700000E-01  3.018678192E-01
  2.580530000E-01  4.874459186E-01
  8.989100000E-02  2.354794293E-01
  3.146200000E-02  1.577775996E-02
   s   7
  8.263637400E+01 -4.600800043E-03
  1.240955800E+01 -3.244470030E-02
  2.823854000E+00 -1.710737016E-01
  7.976700000E-01 -5.048672047E-01
  2.580530000E-01 -9.489200089E-02
  8.989100000E-02  3.708555135E-01
  3.146200000E-02  6.556513461E-01
 
  13
   s   7
  8.263637400E+01  2.564129993E-03
  1.240955800E+01  1.921260995E-02
  2.823854000E+00  9.505117973E-02
  7.976700000E-01  3.018678192E-01
  2.580530000E-01  4.874459186E-01
  8.989100000E-02  2.354794293E-01
  3.146200000E-02  1.577775996E-02
   s   7
  8.263637400E+01 -4.600800043E-03
  1.240955800E+01 -3.244470030E-02
  2.823854000E+00 -1.710737016E-01
  7.976700000E-01 -5.048672047E-01
  2.580530000E-01 -9.489200089E-02
  8.989100000E-02  3.708555135E-01
  3.146200000E-02  6.556513461E-01
 
  14
   s   7
  8.263637400E+01  2.564129993E-03
  1.240955800E+01  1.921260995E-02
  2.823854000E+00  9.505117973E-02
  7.976700000E-01  3.018678192E-01
  2.580530000E-01  4.874459186E-01
  8.989100000E-02  2.354794293E-01
  3.146200000E-02  1.577775996E-02
   s   7
  8.263637400E+01 -4.600800043E-03
  1.240955800E+01 -3.244470030E-02
  2.823854000E+00 -1.710737016E-01
  7.976700000E-01 -5.048672047E-01
  2.580530000E-01 -9.489200089E-02
  8.989100000E-02  3.708555135E-01
  3.146200000E-02  6.556513461E-01
 
  15
   s   7
  8.263637400E+01  2.564129993E-03
  1.240955800E+01  1.921260995E-02
  2.823854000E+00  9.505117973E-02
  7.976700000E-01  3.018678192E-01
  2.580530000E-01  4.874459186E-01
  8.989100000E-02  2.354794293E-01
  3.146200000E-02  1.577775996E-02
   s   7
  8.263637400E+01 -4.600800043E-03
  1.240955800E+01 -3.244470030E-02
  2.823854000E+00 -1.710737016E-01
  7.976700000E-01 -5.048672047E-01
  2.580530000E-01 -9.489200089E-02
  8.989100000E-02  3.708555135E-01
  3.146200000E-02  6.556513461E-01
 
  16
   s   7
  8.263637400E+01  2.564129993E-03
  1.240955800E+01  1.921260995E-02
  2.823854000E+00  9.505117973E-02
  7.976700000E-01  3.018678192E-01
  2.580530000E-01  4.874459186E-01
  8.989100000E-02  2.354794293E-01
  3.146200000E-02  1.577775996E-02
   s   7
  8.263637400E+01 -4.600800043E-03
  1.240955800E+01 -3.244470030E-02
  2.823854000E+00 -1.710737016E-01
  7.976700000E-01 -5.048672047E-01
  2.580530000E-01 -9.489200089E-02
  8.989100000E-02  3.708555135E-01
  3.146200000E-02  6.556513461E-01
 
  17
   s   7
  8.263637400E+01  2.564129993E-03
  1.240955800E+01  1.921260995E-02
  2.823854000E+00  9.505117973E-02
  7.976700000E-01  3.018678192E-01
  2.580530000E-01  4.874459186E-01
  8.989100000E-02  2.354794293E-01
  3.146200000E-02  1.577775996E-02
   s   7
  8.263637400E+01 -4.600800043E-03
  1.240955800E+01 -3.244470030E-02
  2.823854000E+00 -1.710737016E-01
  7.976700000E-01 -5.048672047E-01
  2.580530000E-01 -9.489200089E-02
  8.989100000E-02  3.708555135E-01
  3.146200000E-02  6.556513461E-01
 
  18
   s   7
  8.263637400E+01  2.564129993E-03
  1.240955800E+01  1.921260995E-02
  2.823854000E+00  9.505117973E-02
  7.976700000E-01  3.018678192E-01
  2.580530000E-01  4.874459186E-01
  8.989100000E-02  2.354794293E-01
  3.146200000E-02  1.577775996E-02
   s   7
  8.263637400E+01 -4.600800043E-03
  1.240955800E+01 -3.244470030E-02
  2.823854000E+00 -1.710737016E-01
  7.976700000E-01 -5.048672047E-01
  2.580530000E-01 -9.489200089E-02
  8.989100000E-02  3.708555135E-01
  3.146200000E-02  6.556513461E-01
 
  19
   s   7
  8.263637400E+01  2.564129993E-03
  1.240955800E+01  1.921260995E-02
  2.823854000E+00  9.505117973E-02
  7.976700000E-01  3.018678192E-01
  2.580530000E-01  4.874459186E-01
  8.989100000E-02  2.354794293E-01
  3.146200000E-02  1.577775996E-02
   s   7
  8.263637400E+01 -4.600800043E-03
  1.240955800E+01 -3.244470030E-02
  2.823854000E+00 -1.710737016E-01
  7.976700000E-01 -5.048672047E-01
  2.580530000E-01 -9.489200089E-02
  8.989100000E-02  3.708555135E-01
  3.146200000E-02  6.556513461E-01
 
  20
   s   7
  8.263637400E+01  2.564129993E-03
  1.240955800E+01  1.921260995E-02
  2.823854000E+00  9.505117973E-02
  7.976700000E-01  3.018678192E-01
  2.580530000E-01  4.874459186E-01
  8.989100000E-02  2.354794293E-01
  3.146200000E-02  1.577775996E-02
   s   7
  8.263637400E+01 -4.600800043E-03
  1.240955800E+01 -3.244470030E-02
  2.823854000E+00 -1.710737016E-01
  7.976700000E-01 -5.048672047E-01
  2.580530000E-01 -9.489200089E-02
  8.989100000E-02  3.708555135E-01
  3.146200000E-02  6.556513461E-01
 
  21
   s   7
  8.263637400E+01  2.564129993E-03
  1.240955800E+01  1.921260995E-02
  2.823854000E+00  9.505117973E-02
  7.976700000E-01  3.018678192E-01
  2.580530000E-01  4.874459186E-01
  8.989100000E-02  2.354794293E-01
  3.146200000E-02  1.577775996E-02
   s   7
  8.263637400E+01 -4.600800043E-03
  1.240955800E+01 -3.244470030E-02
  2.823854000E+00 -1.710737016E-01
  7.976700000E-01 -5.048672047E-01
  2.580530000E-01 -9.489200089E-02
  8.989100000E-02  3.708555135E-01
  3.146200000E-02  6.556513461E-01
 
[MO]
Sym=     1a1 
Ene=     0.0000
Spin= Alpha
Occup=    2.00000
   1         0.99961715
   2        -0.00142597
   3        -0.00284525
   4         0.00000000
   5         0.00000000
   6         0.00066553
   7         0.00000000
   8         0.00000000
   9         0.00100588
  10        -0.00005945
  11         0.00000000
  12         0.00000000
  13         0.00024770
  14         0.00000000
  15        -0.00004469
  16        -0.00005214
  17        -0.00002165
  18         0.00000000
  19         0.00000000
  20        -0.00003119
  21         0.00000000
  22         0.00000000
  23        -0.00002554
  24        -0.00000165
  25         0.00000000
  26         0.00000000
  27         0.00000047
  28         0.00000000
  29         0.00051921
  30         0.00251428
  31         0.00103310
  32         0.00000000
  33         0.00000000
  34         0.00240598
  35         0.00000000
  36         0.00000000
  37         0.00218899
  38        -0.00032863
  39         0.00000000
  40         0.00000000
  41        -0.00005703
  42         0.00000000
  43         0.00003304
  44         0.00025565
  45         0.00019301
  46         0.00000000
  47        -0.00001772
  48        -0.00088451
  49         0.00000000
  50        -0.00001926
  51        -0.00082224
  52        -0.00003560
  53         0.00000000
  54         0.00008617
  55        -0.00007629
  56         0.00000000
  57         0.00003304
  58         0.00025565
  59         0.00019301
  60         0.00000000
  61         0.00001772
  62        -0.00088451
  63         0.00000000
  64         0.00001926
  65        -0.00082224
  66        -0.00003560
  67         0.00000000
  68        -0.00008617
  69        -0.00007629
  70         0.00000000
  71        -0.00009372
  72        -0.00049073
  73        -0.00019420
  74         0.00000000
  75        -0.00021480
  76         0.00006327
  77         0.00000000
  78        -0.00024704
  79         0.00010929
  80         0.00002582
  81         0.00000000
  82        -0.00001619
  83         0.00001178
  84         0.00000000
  85        -0.00009372
  86        -0.00049073
  87        -0.00019420
  88         0.00000000
  89         0.00021480
  90         0.00006327
  91         0.00000000
  92         0.00024704
  93         0.00010929
  94         0.00002582
  95         0.00000000
  96         0.00001619
  97         0.00001178
  98         0.00000000
  99        -0.00002154
 100        -0.00012368
 101        -0.00006306
 102         0.00000000
 103         0.00000000
 104         0.00015878
 105         0.00000000
 106         0.00000000
 107         0.00016044
 108        -0.00001670
 109         0.00000000
 110         0.00000000
 111        -0.00003236
 112         0.00000000
 113         0.00003632
 114         0.00022078
 115         0.00011476
 116         0.00000000
 117         0.00000000
 118         0.00003539
 119         0.00000000
 120         0.00000000
 121         0.00002400
 122         0.00001677
 123         0.00000000
 124         0.00000000
 125        -0.00000947
 126         0.00000000
 127         0.00029736
 128         0.00136969
 129         0.00046880
 130         0.00000000
 131         0.00000697
 132        -0.00070289
 133         0.00000000
 134         0.00041813
 135        -0.00052816
 136        -0.00002861
 137         0.00000000
 138        -0.00014474
 139         0.00013174
 140         0.00000000
 141         0.00029736
 142         0.00136969
 143         0.00046880
 144         0.00000000
 145        -0.00000697
 146        -0.00070289
 147         0.00000000
 148        -0.00041813
 149        -0.00052816
 150        -0.00002861
 151         0.00000000
 152         0.00014474
 153         0.00013174
 154         0.00000000
 155         0.00018218
 156         0.00010906
 157         0.00018218
 158         0.00010906
 159        -0.00005439
 160         0.00002420
 161        -0.00005439
 162         0.00002420
 163         0.00010176
 164         0.00021788
 165         0.00010176
 166         0.00021788
 167        -0.00074101
 168        -0.00031751
 169        -0.00074101
 170        -0.00031751
 171        -0.00074101
 172        -0.00031751
 173        -0.00074101
 174        -0.00031751
Sym=     2a1 
Ene=     0.0000
Spin= Alpha
Occup=    2.00000
   1         0.00004621
   2         0.00006831
   3         0.00003624
   4         0.00000000
   5         0.00000000
   6        -0.00005585
   7         0.00000000
   8         0.00000000
   9        -0.00005672
  10         0.00000522
  11         0.00000000
  12         0.00000000
  13        -0.00000083
  14         0.00000000
  15         1.00062031
  16         0.00423157
  17         0.00091999
  18         0.00000000
  19         0.00000000
  20         0.00306202
  21         0.00000000