   This run of MOLCAS is using the pymolcas driver

                             OPE
                             OPE          NMOL  CASOP  ENMOLC A   SO
                 OPE        NMOLC        AS  OP EN  MO LC     AS  OP
                OPENM       OL CA        SO  PE NM  OL CA     SOP EN
                OP EN      MO   LC       AS  OP ENMOL  CASO   PENMOL
                OP  EN     MO   LC       AS  OP EN     MO     LC ASO
               OP   E  NMOL  C  AS       OP  EN MO     LC     AS  OP
               OP  E   NMO   LC AS        OPEN  MO     LCASOP EN   M
               O  PEN   MO  LCA  SO
            OPE   NMO   L   CAS    OP
        OPENMOL  CASOP     ENMOL   CASOPE
     OPENMOLCA   SOPENMOLCASOPEN   MOLCASOPE
    OPENMOLCAS   OP           EN   MOL    CAS
    OPENMOLCAS       OP  ENM        O     LCA
    OPENMOLCAS    OPEN  MOLCASO     P  E  NMO
    OPENMOLCAS     OP               E  N  MOL
    OPENMOLCA   SO           PENM   O  L  CAS    OPEN    MO    LCAS
    OPENMOLCA   SOP           ENM   O  L  CAS   OP  EN  MOLC  AS   O
    OPENMOLCA   SOPE           NM      O  LCA   S      OP  EN MO
    OPENMOLC                AS         O  PEN   M      OL  CA  SOPE
    OPENMO        LCASOPE  NMOL        C  ASO   P      ENMOLC     AS
    OPE     NMO      LCA  SO     P     E   NM   OL  CA SO  PE N   MO
          OPENMOLCA            SOPE   NMO        LCAS  O    P  ENMO
     OPENMOLCASOPENMOLCASOPENMOLCASOPENMOLCA
        OPENMOLCASOPENMOLCASOPENMOLCASOPE
            OPENMOLCASOPENMOLCASOPENM
               OPENMOLCASOPENMOLCA        version: v25.02 ?
                   OPENMOLCASO
                       OPE                tag:

 OpenMolcas is free software; you can redistribute it and/or modify it
 under the terms of the GNU Lesser General Public License version 2.1.
 OpenMolcas is distributed in the hope that it will be useful, but it
 is provided "as is" and without any express or implied warranties.
 For more details see the full text of the license in the file
 LICENSE or in <http://www.gnu.org/licenses/>.

                 Copyright (C) The OpenMolcas Authors
           For the author list and the recommended citation,
                   consult the file CONTRIBUTORS.md

           *************************************************
           * pymolcas version py2.29                       *
           *   build c0481229b6f3f65ed2c83878be511d3d      *
           *   (after the EMIL interpreter by V. Veryazov) *
           *************************************************

configuration info
------------------
Host name: bcb11747ffd6 (Linux)
C Compiler ID: IntelLLVM
C flags: -std=gnu99 -qopenmp
Fortran Compiler ID: IntelLLVM
Fortran flags: -standard-semantics -fltconsistency -fpp -i8 -heap-arrays -qopenmp
Definitions: _MOLCAS_;_I8_;_LINUX_;_MOLCAS_MPP_;_SCALAPACK_;_GA_
Parallel: ON (GA=ON)


   ------------------------------------------------------------------
  |
  |           Project: cyclo-freq
  |    Submitted from: /home/charlie/input_examples/molcas/cyclo-freq
  |      Scratch area: /tmp/cyclo-freq
  |   Save outputs to: /home/charlie/input_examples/molcas/cyclo-freq
  |            Molcas: /apps/openmolcas
  |
  | Scratch area is empty (for the master process)
  |
  |    MOLCAS_DRIVER = /apps/openmolcas/pymolcas
  |    MOLCAS_NPROCS = 10
  |    MOLCAS_SOURCE = /apps/openmolcas
  | MOLCAS_STRUCTURE = 0
  |
   ------------------------------------------------------------------

++ ---------   Input file   ---------

&GATEWAY
 Title=1,3,-cyclopentadiene molecule
  Symmetry= X XY
  Basis set
  C.ANO-L...4s3p1d.
    C1             0.0000000000        0.0000000000       -2.3483061484
    C2             0.0000000000        2.2245383122       -0.5643712787
    C3             0.0000000000        1.3951643642        1.8424767578
  End of basis
  Basis set
  H.ANO-L...2s.
    H1             1.6599988023        0.0000000000       -3.5754797471
    H2             0.0000000000        4.1615845660       -1.1772096132
    H3             0.0000000000        2.5501642966        3.5149458446
  End of basis

&SEWARD

&SCF
 TITLE=cyclopentadiene molecule
  OCCUPIED= 9 1 6 2
  ITERATIONS= 40

&RASSCF
 TITLE=cyclopentadiene molecule 1A1
  SYMMETRY=1
 SPIN=1
 NACTEL= 6    0    0
  INACTIVE= 9    0    6    0
  RAS2    = 0    2    0    3
  ITER= 50,25
 CIMX=25

&MCKINLEY

-- ----------------------------------

--- Start Module: gateway at Fri Dec  5 01:00:13 2025 ---
 
()()()()()()()()()()()()()()()()()()()()()()()()()()()()()()()()()()()()()()()()()()()()()()()()()()

                                              &GATEWAY

             launched 10 MPI processes, running in PARALLEL mode (work-sharing enabled)
                       available to each process: 2.0 GB of memory, 1 thread
                                        master pid: 3071346
()()()()()()()()()()()()()()()()()()()()()()()()()()()()()()()()()()()()()()()()()()()()()()()()()()
 
 
 Title:
                                 1,3,-cyclopentadiene molecule                          
 
 
++    Symmetry information:
      ---------------------
 
                    --- Group Generators ---
                    Reflection in the yz-plane  
                    Rotation around the z-axis  
 
                    Character Table for C2v
 
                             E   s(yz) C2(z) s(xz)
                    a1       1     1     1     1  z
                    a2       1    -1     1    -1  xy, Rz, I
                    b2       1     1    -1    -1  y, yz, Rx
                    b1       1    -1    -1     1  x, xz, Ry
--
 
 
++    Basis set information:
      ----------------------
 
 
      Basis set label: C.ANO-L...4S3P1D......
 
      Electronic valence basis set:
      ------------------
      Associated Effective Charge   6.000000 au
      Associated Actual Charge      6.000000 au
      Nuclear Model: Point charge
 
      Shell  nPrim  nBasis  Cartesian Spherical Contaminant
         s      14       4        X                  
         p       9       3        X                  
         d       4       1                 X         
 
 
      Basis set label: H.ANO-L...2S......
 
      Electronic valence basis set:
      ------------------
      Associated Effective Charge   1.000000 au
      Associated Actual Charge      1.000000 au
      Nuclear Model: Point charge
 
      Shell  nPrim  nBasis  Cartesian Spherical Contaminant
         s       8       2        X                  
--
 
 
++    Molecular structure info:
      -------------------------
 
                    ************************************************ 
                    **** Cartesian Coordinates / bohr, angstrom **** 
                    ************************************************ 
 
     Center  Label                x              y              z                     x              y              z
        1      C1               0.000000       0.000000      -2.348306              0.000000       0.000000      -1.242670
        2      C2               0.000000       2.224538      -0.564371              0.000000       1.177175      -0.298652
        3      C2               0.000000      -2.224538      -0.564371              0.000000      -1.177175      -0.298652
        4      C3               0.000000       1.395164       1.842477              0.000000       0.738289       0.974997
        5      C3               0.000000      -1.395164       1.842477              0.000000      -0.738289       0.974997
        6      H1               1.659999       0.000000      -3.575480              0.878434       0.000000      -1.892062
        7      H1              -1.659999       0.000000      -3.575480             -0.878434       0.000000      -1.892062
        8      H2               0.000000       4.161585      -1.177210              0.000000       2.202216      -0.622952
        9      H2               0.000000      -4.161585      -1.177210              0.000000      -2.202216      -0.622952
       10      H3               0.000000       2.550164       3.514946              0.000000       1.349489       1.860029
       11      H3               0.000000      -2.550164       3.514946              0.000000      -1.349489       1.860029
 
                    *************************************** 
                    *    InterNuclear Distances / bohr    * 
                    *************************************** 
 
               1 C1            2 C2            3 C2            4 C3            5 C3            6 H1    
    1 C1       0.000000
    2 C2       2.851490        0.000000
    3 C2       2.851490        4.449077        0.000000
    4 C3       4.416916        2.545737        4.346857        0.000000
    5 C3       4.416916        4.346857        2.545737        2.790329        0.000000
    6 H1       2.064352        4.095234        4.095234        5.835780        5.835780        0.000000
    7 H1       2.064352        4.095234        4.095234        5.835780        5.835780        3.319998
    8 H2       4.323223        2.031679        6.415461        4.095313        6.324236        5.081937
    9 H2       4.323223        6.415461        2.031679        6.324236        4.095313        5.081937
   10 H3       6.393830        4.092293        6.280017        2.032530        4.285180        7.715768
   11 H3       6.393830        6.280017        4.092293        4.285180        2.032530        7.715768
 
               7 H1            8 H2            9 H2           10 H3           11 H3    
    7 H1       0.000000
    8 H2       5.081937        0.000000
    9 H2       5.081937        8.323169        0.000000
   10 H3       7.715768        4.961149        8.189255        0.000000
   11 H3       7.715768        8.189255        4.961149        5.100329        0.000000
 
                    ******************************************* 
                    *    InterNuclear Distances / angstrom    * 
                    ******************************************* 
 
               1 C1            2 C2            3 C2            4 C3            5 C3            6 H1    
    1 C1       0.000000
    2 C2       1.508943        0.000000
    3 C2       1.508943        2.354350        0.000000
    4 C3       2.337331        1.347146        2.300258        0.000000
    5 C3       2.337331        2.300258        1.347146        1.476578        0.000000
    6 H1       1.092408        2.167104        2.167104        3.088162        3.088162        0.000000
    7 H1       1.092408        2.167104        2.167104        3.088162        3.088162        1.756867
    8 H2       2.287751        1.075118        3.394916        2.167146        3.346642        2.689245
    9 H2       2.287751        3.394916        1.075118        3.346642        2.167146        2.689245
   10 H3       3.383469        2.165548        3.323242        1.075568        2.267620        4.083008
   11 H3       3.383469        3.323242        2.165548        2.267620        1.075568        4.083008
 
               7 H1            8 H2            9 H2           10 H3           11 H3    
    7 H1       0.000000
    8 H2       2.689245        0.000000
    9 H2       2.689245        4.404431        0.000000
   10 H3       4.083008        2.625327        4.333567        0.000000
   11 H3       4.083008        4.333567        2.625327        2.698978        0.000000
 
                    ************************************** 
                    *    Valence Bond Angles / degree    * 
                    ************************************** 
                          Atom centers                 Phi
                      2 C2       1 C1       3 C2       102.55
                      2 C2       1 C1       6 H1       111.83
                      2 C2       1 C1       7 H1       111.83
                      3 C2       1 C1       6 H1       111.83
                      3 C2       1 C1       7 H1       111.83
                      6 H1       1 C1       7 H1       107.05
                      1 C1       2 C2       4 C3       109.71
                      1 C1       2 C2       8 H2       123.72
                      4 C3       2 C2       8 H2       126.57
                      1 C1       3 C2       5 C3       109.71
                      1 C1       3 C2       9 H2       123.72
                      5 C3       3 C2       9 H2       126.57
                      2 C2       4 C3       5 C3       109.01
                      2 C2       4 C3      10 H3       126.36
                      5 C3       4 C3      10 H3       124.63
                      3 C2       5 C3       4 C3       109.01
                      3 C2       5 C3      11 H3       126.36
                      4 C3       5 C3      11 H3       124.63
 
           ***************************************************************
           *              Valence Dihedral Angles / degree               *
           ***************************************************************
                    Atom centers                       Phi1     Phi2     Theta 
           3 C2       1 C1       2 C2       4 C3        102.55   109.71    -0.00
           3 C2       1 C1       2 C2       8 H2        102.55   123.72  -180.00
           6 H1       1 C1       2 C2       8 H2        111.83   123.72    60.03
           7 H1       1 C1       2 C2       8 H2        111.83   123.72   -60.03
           2 C2       1 C1       3 C2       5 C3        102.55   109.71    -0.00
           2 C2       1 C1       3 C2       9 H2        102.55   123.72  -180.00
           6 H1       1 C1       3 C2       9 H2        111.83   123.72   -60.03
           7 H1       1 C1       3 C2       9 H2        111.83   123.72    60.03
           4 C3       2 C2       1 C1       6 H1        109.71   111.83  -119.97
           4 C3       2 C2       1 C1       7 H1        109.71   111.83   119.97
           1 C1       2 C2       4 C3       5 C3        109.71   109.01    -0.00
           1 C1       2 C2       4 C3      10 H3        109.71   126.36  -180.00
           8 H2       2 C2       4 C3      10 H3        126.57   126.36    -0.00
           5 C3       3 C2       1 C1       6 H1        109.71   111.83   119.97
           5 C3       3 C2       1 C1       7 H1        109.71   111.83  -119.97
           1 C1       3 C2       5 C3       4 C3        109.71   109.01    -0.00
           1 C1       3 C2       5 C3      11 H3        109.71   126.36  -180.00
           9 H2       3 C2       5 C3      11 H3        126.57   126.36    -0.00
           5 C3       4 C3       2 C2       8 H2        109.01   126.57  -180.00
           2 C2       4 C3       5 C3       3 C2        109.01   109.01    -0.00
           2 C2       4 C3       5 C3      11 H3        109.01   124.63  -180.00
          10 H3       4 C3       5 C3      11 H3        124.63   124.63    -0.00
           4 C3       5 C3       3 C2       9 H2        109.01   126.57  -180.00
           3 C2       5 C3       4 C3      10 H3        109.01   124.63  -180.00
--
 
 
            Nuclear Potential Energy            156.55131783 au
 
--- Stop Module: gateway at Fri Dec  5 01:00:15 2025 /rc=_RC_ALL_IS_WELL_ ---
*** files: xmldump
    saved to directory /home/charlie/input_examples/molcas/cyclo-freq
--- Module gateway spent 1 second ---

--- Start Module: seward at Fri Dec  5 01:00:17 2025 ---
 
()()()()()()()()()()()()()()()()()()()()()()()()()()()()()()()()()()()()()()()()()()()()()()()()()()

                                              &SEWARD

             launched 10 MPI processes, running in PARALLEL mode (work-sharing enabled)
                       available to each process: 2.0 GB of memory, 1 thread
                                        master pid: 3071458
()()()()()()()()()()()()()()()()()()()()()()()()()()()()()()()()()()()()()()()()()()()()()()()()()()
 
               SEWARD will generate:
                  Multipole Moment integrals up to order  2
                  Kinetic Energy integrals
                  Nuclear Attraction integrals (point charge)
                  One-Electron Hamiltonian integrals
                  Velocity integrals
                  Orbital angular momentum around ( 0.0000  0.0000 -0.0000 )
                  Velocity quadrupole around ( 0.0000  0.0000 -0.0000 )
                  Two-Electron Repulsion integrals
 
 Title:
                                 1,3,-cyclopentadiene molecule                          
 
 
                   Integrals are discarded if absolute value <: 1.00E-14
                   Integral cutoff threshold is set to       <: 1.00E-16
 
                    Unitary symmetry adaptation
 
 
            Nuclear Potential Energy            156.55131783 au
 
 
      Basis set specifications :
      Symmetry species         a1   a2   b2   b1 
      Basis functions           41   11   34   16
 
 
      Input file to MOLDEN was generated!
 
--- Stop Module: seward at Fri Dec  5 01:00:21 2025 /rc=_RC_ALL_IS_WELL_ ---
*** files: cyclo-freq.GssOrb cyclo-freq.guessorb.molden xmldump
    saved to directory /home/charlie/input_examples/molcas/cyclo-freq
--- Module seward spent 3 seconds ---

*** symbolic link created: INPORB -> cyclo-freq.GssOrb
--- Start Module: scf at Fri Dec  5 01:00:24 2025 ---
 
()()()()()()()()()()()()()()()()()()()()()()()()()()()()()()()()()()()()()()()()()()()()()()()()()()

                                                &SCF

             launched 10 MPI processes, running in PARALLEL mode (work-sharing enabled)
                       available to each process: 2.0 GB of memory, 1 thread
                                        master pid: 3071586
()()()()()()()()()()()()()()()()()()()()()()()()()()()()()()()()()()()()()()()()()()()()()()()()()()
 
++    Input section:
      --------------
 
      Header of the integral files:
      
       Integrals generated by Gateway/Seward, Fri Dec  5 01:00:18 2025
 
       Title:
        cyclopentadiene molecule
 
      Cartesian coordinates in angstrom:
      -----------------------------------------------------
      No.  Label        X            Y            Z        
      -----------------------------------------------------
       1   C1         0.00000000   0.00000000  -1.24267010
       2   C2         0.00000000   1.17717498  -0.29865242
       3   C3         0.00000000   0.73828919   0.97499671
       4   H1         0.87843354   0.00000000  -1.89206240
       5   H2         0.00000000   2.20221571  -0.62295250
       6   H3         0.00000000   1.34948883   1.86002924
       7   C2         0.00000000  -1.17717498  -0.29865242
       8   C3         0.00000000  -0.73828919   0.97499671
       9   H1        -0.87843354   0.00000000  -1.89206240
      10   H2         0.00000000  -2.20221571  -0.62295250
      11   H3         0.00000000  -1.34948883   1.86002924
      -----------------------------------------------------
      Nuclear repulsion energy =  156.55131783
--
 
++    Orbital specifications:
      -----------------------
 
      Symmetry species               1   2   3   4
                                    a1  a2  b2  b1
      Frozen orbitals                0   0   0   0
      Occupied orbitals              9   1   6   2
      Secondary orbitals            32  10  28  14
      Deleted orbitals               0   0   0   0
      Total number of orbitals      41  11  34  16
      Number of basis functions     41  11  34  16
--
 
      Molecular charge                           0.000
 
++    Optimization specifications:
      ----------------------------
 
      SCF Algorithm: Conventional
      Minimized density differences are used
      Number of density matrices in core                 5
      Maximum number of NDDO SCF iterations             40
      Maximum number of HF SCF iterations               40
      Threshold for SCF energy change             1.00E-09
      Threshold for density matrix                1.00E-04
      Threshold for Fock matrix                   1.50E-04
      Threshold for linear dependence             1.00E-09
      Threshold at which DIIS is turned on        1.50E-01
      Maximum depth in the DIIS procedure                5
      Maximum depth in the BFGS Hessian update          30
      Threshold at which QNR/C2DIIS is turned on  7.50E-02
      Threshold for Norm(delta) (QNR/C2DIIS)      1.00E-03
      All orbitals punched on: SCFORB
--
 
      Detected guessorb starting orbitals                                             
 
 
++ Convergence information
                                   SCF        iterations: Energy and convergence statistics
 
Iter     Tot. SCF        One-elec.       Two-elec.     Energy      Max Dij or  Max Fij      DNorm      TNorm      AccCon     Time
         Energy          Energy          Energy        Change      Delta Norm                                                in Sec.
   1  -192.186037425  -559.215856878   210.478501627   0.00E+00    3.34E-01*   1.39E-01*    7.84E+00   1.31E+02   None         0.
   2  -192.732778229  -572.804528169   223.520432114  -5.47E-01*   1.59E-01*   8.72E-02*    3.12E+00   1.35E+02   EDIIS        0.
   3  -192.807351689  -567.024629280   217.665959764  -7.46E-02*   6.67E-02*   3.54E-02*    8.55E-01   1.33E+02   EDIIS        0.
   4  -192.825326912  -570.089497670   220.712852932  -1.80E-02*   1.56E-02*   1.42E-02*    2.30E-01   1.34E+02   c2DIIS       0.
   5  -192.831528500  -569.059368680   219.676522354  -6.20E-03*   7.14E-03*   2.32E-03*    4.99E-02   1.34E+02   QNRc2DIIS    0.
   6  -192.831628403  -569.074377278   219.691431049  -9.99E-05*   5.83E-03*   9.86E-04*    1.37E-02   1.34E+02   QNRc2DIIS    0.
   7  -192.831649819  -569.064796245   219.681828600  -2.14E-05*   9.84E-04    2.80E-04*    9.77E-03   1.34E+02   QNRc2DIIS    0.
   8  -192.831652144  -569.065801347   219.682831376  -2.33E-06*   3.10E-04    6.54E-05     1.40E-03   1.34E+02   QNRc2DIIS    0.
   9  -192.831652239  -569.067957614   219.684987549  -9.51E-08*   7.40E-05    2.38E-05     3.36E-04   1.34E+02   QNRc2DIIS    0.
  10  -192.831652251  -569.066692150   219.683722073  -1.14E-08*   1.39E-05    3.21E-06     1.01E-04   1.34E+02   QNRc2DIIS    0.
  11  -192.831652251  -569.066749475   219.683779398  -3.62E-10    6.11E-06    9.74E-07     2.38E-05   1.34E+02   QNRc2DIIS    0.
 
       Convergence after  11 Macro Iterations
--
 
 *****************************************************************************************************************************
 *                                                                                                                           *
 *                                             SCF/KS-DFT Program, Final results                                             *
 *                                                                                                                           *
 *                                                                                                                           *
 *                                                                                                                           *
 *                                                       Final Results                                                       *
 *                                                                                                                           *
 *****************************************************************************************************************************
 
::    Total SCF energy                               -192.8316522512
      One-electron energy                            -569.0667494751
      Two-electron energy                             219.6837793978
      Nuclear repulsion energy                        156.5513178261
      Kinetic energy (interpolated)                   192.8573584088
      Virial theorem                                    0.9998667090
      Total spin, S(S+1)                                0.0000000000
      Total spin, S                                     0.0000000000
      Max non-diagonal density matrix element           0.0000061769
      Max non-diagonal Fock matrix element              0.0000006094
 
 
      All orbitals with orbital energies smaller than  E(LUMO)+0.5 are printed
 
++    Molecular orbitals:
      -------------------
 
      Title: SCF orbitals

      Molecular orbitals for symmetry species 1: a1 
 
          Orbital            1         2         3         4         5         6         7         8         9        10    
          Energy          -11.2330  -11.2313  -11.2285   -1.1493   -0.9566   -0.7589   -0.6986   -0.5316   -0.5118    0.0894
          Occ. No.          2.0000    2.0000    2.0000    2.0000    2.0000    2.0000    2.0000    2.0000    2.0000    0.0000
 
        1 C1     1s         0.9915   -0.0758    0.1032   -0.0505    0.0470   -0.0177   -0.0062    0.0003   -0.0069   -0.1603
        2 C1     2s         0.0008    0.0003    0.0010    0.1294   -0.4029    0.2455   -0.0244    0.0172    0.0913   -1.2884
        3 C1     3s        -0.0009   -0.0001    0.0011   -0.1465    0.1218   -0.0554   -0.0351   -0.0183   -0.0055   -0.8798
        4 C1     4s         0.0014   -0.0002    0.0005   -0.0364    0.0423   -0.0236   -0.0076   -0.0100    0.0001   -0.2305
        5 C1     2pz       -0.0005    0.0002   -0.0001    0.0748    0.0490   -0.1963   -0.2260   -0.3570    0.4467    0.2594
        6 C1     3pz       -0.0003    0.0000    0.0003   -0.0128    0.0325   -0.0195    0.0249   -0.0064   -0.0226   -0.0663
        7 C1     4pz        0.0001    0.0000   -0.0000    0.0065    0.0136   -0.0139    0.0022   -0.0068   -0.0044   -0.1271
        8 C1     3d0        0.0001   -0.0000    0.0001    0.0053    0.0021    0.0071   -0.0163    0.0176    0.0019   -0.0049
        9 C1     3d2+       0.0002   -0.0000    0.0001   -0.0050   -0.0021    0.0212    0.0128    0.0440   -0.0330   -0.0269
       10 C2     1s         0.1207    0.2851   -0.9510   -0.0468    0.0011    0.0241    0.0049   -0.0040   -0.0077   -0.0783
       11 C2     2s         0.0012    0.0003   -0.0038    0.4149   -0.1360   -0.4346    0.1275   -0.0780    0.0340   -0.6583
       12 C2     3s        -0.0000   -0.0006   -0.0018   -0.0283    0.0072    0.0459    0.0138    0.0054   -0.0055   -0.4229
       13 C2     4s         0.0001    0.0003   -0.0019    0.0027    0.0081    0.0236    0.0004    0.0092    0.0029   -0.1055
       14 C2     2py       -0.0006   -0.0000    0.0001   -0.0936    0.0265   -0.2209    0.3638   -0.1042   -0.3005   -0.2046
       15 C2     3py        0.0003    0.0001    0.0002    0.0449   -0.0419   -0.0301   -0.0678   -0.0338    0.0359    0.0409
       16 C2     4py        0.0002    0.0000   -0.0001   -0.0057    0.0004   -0.0228    0.0209   -0.0100   -0.0062    0.0729
       17 C2     2pz       -0.0010    0.0007    0.0000    0.0324    0.2363   -0.0859   -0.0978    0.4860   -0.1013   -0.0717
       18 C2     3pz       -0.0002   -0.0003   -0.0003   -0.0118    0.0117    0.0232    0.0399   -0.0565    0.0357   -0.2218
       19 C2     4pz        0.0001   -0.0002    0.0002    0.0237    0.0398    0.0009    0.0065    0.0172    0.0034   -0.1065
       20 C2     3d1-       0.0004   -0.0003    0.0002   -0.0027   -0.0222    0.0280   -0.0016    0.0017    0.0520   -0.0228
       21 C2     3d0        0.0001    0.0004   -0.0000    0.0123    0.0010    0.0001   -0.0041    0.0446    0.0043    0.0183
       22 C2     3d2+      -0.0002    0.0002    0.0004   -0.0160    0.0164    0.0317   -0.0037    0.0346    0.0010    0.0465
       23 C3     1s         0.0428    0.9553    0.2924   -0.0524   -0.0373   -0.0055    0.0015   -0.0062    0.0112   -0.0262
       24 C3     2s         0.0004    0.0028    0.0015    0.3973    0.4416    0.2554    0.0814    0.0284   -0.0998   -0.1367
       25 C3     3s         0.0001    0.0004    0.0011   -0.0508   -0.0704   -0.0102    0.0051   -0.0104    0.0068    0.0873
       26 C3     4s         0.0001    0.0015    0.0007   -0.0033   -0.0268   -0.0117    0.0008   -0.0009   -0.0028    0.0660
       27 C3     2py       -0.0001   -0.0002   -0.0005   -0.0801   -0.0340   -0.2033    0.2157    0.4748    0.4914   -0.1508
       28 C3     3py       -0.0002    0.0005    0.0000   -0.0161    0.0574    0.0387   -0.0857   -0.0592   -0.0592   -0.1020
       29 C3     4py       -0.0001    0.0000   -0.0000   -0.0122   -0.0016   -0.0107   -0.0009    0.0123    0.0046    0.0183
       30 C3     2pz       -0.0003    0.0000    0.0004   -0.1422    0.0906    0.2851    0.2746   -0.3080    0.2402   -0.3224
       31 C3     3pz       -0.0003    0.0000   -0.0004   -0.0040    0.0697   -0.0361   -0.0950    0.0427    0.0053   -0.3333
       32 C3     4pz       -0.0000    0.0002    0.0000   -0.0126    0.0235    0.0248    0.0110   -0.0087    0.0084   -0.0516
       33 C3     3d1-      -0.0000   -0.0001    0.0003   -0.0041   -0.0008    0.0182   -0.0014    0.0002    0.0337    0.0127
       34 C3     3d0        0.0000    0.0002   -0.0002    0.0140    0.0068   -0.0035    0.0054    0.0335    0.0454   -0.0264
       35 C3     3d2+       0.0000   -0.0003   -0.0003   -0.0177   -0.0280   -0.0255    0.0006    0.0202    0.0270    0.0128
       36 H1     1s         0.0001   -0.0000   -0.0000    0.1512   -0.1639    0.1489    0.1483    0.1901   -0.1911    0.8439
       37 H1     2s        -0.0010    0.0000   -0.0001    0.0461    0.0857   -0.0930    0.0062   -0.0607    0.0448    0.7091
       38 H2     1s        -0.0002   -0.0000    0.0007    0.0380    0.0103   -0.1246    0.2769   -0.1543   -0.1682    0.4978
       39 H2     2s        -0.0003   -0.0004    0.0012   -0.0251    0.0463    0.1511   -0.0529    0.0752    0.0414    0.4417
       40 H3     1s         0.0003   -0.0007   -0.0003    0.0878    0.0079    0.1085    0.3056    0.0278    0.2742    0.6436
       41 H3     2s         0.0002   -0.0013   -0.0003    0.0104   -0.1363   -0.0673   -0.0293   -0.0120   -0.0808    0.5175
 
          Orbital           11        12        13        14        15        16        17        18        19    
          Energy            0.0961    0.1504    0.1953    0.2893    0.3669    0.3908    0.4995    0.5343    0.5526
          Occ. No.          0.0000    0.0000    0.0000    0.0000    0.0000    0.0000    0.0000    0.0000    0.0000
 
        1 C1     1s         0.0454    0.1016    0.1325   -0.0136   -0.0813   -0.0110   -0.2112   -0.2717   -0.1792
        2 C1     2s         0.4109    0.8832    0.9000   -0.1367   -0.5254   -0.0436   -1.5822   -2.1728   -1.4397
        3 C1     3s         0.3878    0.5990    0.4827   -0.0612   -0.0278   -0.3312   -1.6913   -2.2552   -2.1471
        4 C1     4s         0.1359    0.1878    0.0805   -0.0095    0.0262   -0.1357   -0.5219   -0.6680   -0.7593
        5 C1     2pz        0.0774    0.2181   -0.9883   -0.5556    1.3386    1.8112   -1.0322    0.2423    0.3044
        6 C1     3pz        0.2738    0.6827   -1.1987   -1.0621    1.8012    1.3171   -0.7995    0.7308    0.3634
        7 C1     4pz        0.1125    0.3438   -0.2656   -0.3390    0.3372   -0.0208    0.0022    0.1497   -0.0981
        8 C1     3d0        0.0086   -0.0260    0.0266    0.0008   -0.0067    0.0051    0.0498   -0.0787   -0.0160
        9 C1     3d2+       0.0219    0.0664    0.0115   -0.0163   -0.0333    0.0391    0.0051   -0.1680   -0.0018
       10 C2     1s        -0.0090   -0.1129    0.0822    0.0343   -0.0410    0.0101   -0.2747   -0.0938    0.0116
       11 C2     2s         0.0120   -1.0634    0.4734    0.2820   -0.2294   -0.0862   -2.1513   -0.8102   -0.0737
       12 C2     3s         0.1672   -0.7929    0.1845    0.1588   -0.2738   -0.2316   -1.5570   -1.5435   -0.2136
       13 C2     4s         0.0836   -0.2612   -0.0007    0.0352   -0.1012   -0.1112   -0.4205   -0.5277   -0.1095
       14 C2     2py       -0.0051   -0.0306   -0.2173   -0.2878    0.2944    0.4402   -1.7304    0.2463    0.1617
       15 C2     3py        0.0268    0.5817    0.1356   -0.7204   -0.0266    0.2024   -2.0190    0.2174   -0.4289
       16 C2     4py        0.0297    0.4008    0.1874   -0.2539   -0.1730   -0.0365   -0.3731    0.1232   -0.2379
       17 C2     2pz        0.3166    0.2178   -0.0673    0.6298   -1.1771    1.0476    0.2915   -0.5440   -1.0164
       18 C2     3pz        0.6038    0.0799   -0.2295    1.2996   -1.6471    0.5714    0.6397   -0.0337   -2.3143
       19 C2     4pz        0.2557   -0.0375   -0.1142    0.4204   -0.4593   -0.0572    0.2211    0.1535   -0.8460
       20 C2     3d1-       0.0535    0.0355   -0.0129   -0.0119   -0.0961    0.0754   -0.0510    0.0504   -0.0498
       21 C2     3d0       -0.0615    0.0573    0.0002   -0.0180    0.0629   -0.0822   -0.0027    0.1769    0.0495
       22 C2     3d2+      -0.0017   -0.0396   -0.0310   -0.0080   -0.0072   -0.0661   -0.0894    0.1230   -0.0092
       23 C3     1s        -0.1396    0.0280    0.0624   -0.0082    0.0000   -0.1101   -0.1701    0.0231    0.2424
       24 C3     2s        -1.2125    0.3124    0.4058   -0.0972   -0.2486   -1.0488   -1.0558    0.2208    2.0907
       25 C3     3s        -0.9286    0.2825    0.1560   -0.0899   -0.5439   -1.2009   -0.7062   -0.1970    2.7494
       26 C3     4s        -0.2736    0.1062   -0.0021   -0.0317   -0.2010   -0.4218   -0.1643   -0.0675    0.9479
       27 C3     2py       -0.2905    0.2282    0.1581    0.6913    0.3516   -0.0932   -0.3852   -0.4081    0.5586
       28 C3     3py       -0.1862    0.3896    0.3859    1.3819    0.9685   -0.0057   -0.6878   -0.6566    1.4442
       29 C3     4py       -0.0205    0.1324    0.1517    0.4334    0.3546    0.0278   -0.2518   -0.1007    0.4195
       30 C3     2pz       -0.1254   -0.0089    0.0976   -0.3910   -0.3018    1.0273   -1.3010   -0.8175   -0.0712
       31 C3     3pz        0.3920   -0.4121    0.4133   -0.5768   -0.1285    0.8725   -1.3300   -0.9369   -0.1102
       32 C3     4pz        0.2677   -0.2665    0.1772   -0.1252   -0.0179    0.0974   -0.2331   -0.0914   -0.1909
       33 C3     3d1-      -0.0705    0.0411    0.0264   -0.0219    0.0764   -0.0311    0.1061   -0.1604    0.0626
       34 C3     3d0        0.0230   -0.0717    0.0174    0.0240   -0.0452    0.0818   -0.0116   -0.0842   -0.0920
       35 C3     3d2+       0.0235    0.0012   -0.0216    0.0005   -0.0070   -0.0628   -0.0230    0.0104    0.0145
       36 H1     1s         0.2387   -0.1735   -1.2728    0.2121    0.6092    2.4058   -0.2974    1.7579   -0.2519
       37 H1     2s         0.1794   -0.1455   -0.9800    0.2006    0.3796    1.6384   -0.2025    1.6454   -0.2181
       38 H2     1s         0.3228    0.4985    0.4339   -0.4019   -1.1924    0.4384    3.0301    0.0647   -1.0024
       39 H2     2s         0.2643    0.3751    0.2407   -0.3368   -0.9207    0.1603    1.9300    0.4418   -0.7985
       40 H3     1s         0.4860   -0.1677    0.1698    0.1523    1.7544   -0.6554    1.8167    0.9636    0.0810
       41 H3     2s         0.4329   -0.1265    0.0376    0.1239    1.1471   -0.5042    1.1069    1.0489    0.1585

      Molecular orbitals for symmetry species 2: a2 
 
          Orbital            1         2         3         4    
          Energy           -0.3091    0.2068    0.2281    0.4731
          Occ. No.          2.0000    0.0000    0.0000    0.0000
 
        1 C1     3d2-       0.0375   -0.0426   -0.0411    0.0386
        2 C2     2px        0.7411   -1.1845   -0.4408   -0.7958
        3 C2     3px        0.0164   -1.4162    0.4035   -2.0054
        4 C2     4px       -0.0189   -0.4052    0.3205   -0.6396
        5 C2     3d2-      -0.0034   -0.0203   -0.0041    0.0126
        6 C2     3d1+       0.0337    0.0645    0.0246   -0.0507
        7 C3     2px        0.5488    1.4965    1.1286    1.3037
        8 C3     3px        0.0103    0.9742    1.4388    3.1363
        9 C3     4px       -0.0143    0.1061    0.4240    0.9689
       10 C3     3d2-       0.0425    0.0378    0.0106   -0.0343
       11 C3     3d1+      -0.0402    0.0267    0.0349   -0.0198

      Molecular orbitals for symmetry species 3: b2 
 
          Orbital            1         2         3         4         5         6         7         8         9        10    
          Energy          -11.2307  -11.2285   -0.9664   -0.7316   -0.5670   -0.5051    0.0988    0.1490    0.2866    0.3389
          Occ. No.          2.0000    2.0000    2.0000    2.0000    2.0000    2.0000    0.0000    0.0000    0.0000    0.0000
 
        1 C1     2py        0.0003   -0.0000    0.1257   -0.2330   -0.0174    0.5232   -0.2567   -0.1418    0.7643   -1.0135
        2 C1     3py       -0.0001   -0.0011   -0.0066    0.0364    0.0103   -0.0503   -0.4040   -0.2966    1.3321   -0.9248
        3 C1     4py       -0.0001   -0.0004    0.0177    0.0017    0.0030   -0.0091   -0.1553   -0.1228    0.3947   -0.1547
        4 C1     3d1-       0.0002    0.0003    0.0187   -0.0225   -0.0153    0.0467    0.0393    0.0210   -0.0030    0.0741
        5 C2     1s         0.4023    0.9156   -0.0503    0.0119    0.0180   -0.0058    0.1433    0.0538    0.0049    0.0604
        6 C2     2s         0.0009    0.0033    0.5555   -0.3269   -0.0662    0.0123    1.2436    0.5903    0.1294    0.3979
        7 C2     3s        -0.0000    0.0015   -0.0727    0.0350    0.0239   -0.0005    0.9958    0.4803    0.1524   -0.0106
        8 C2     4s         0.0006    0.0018   -0.0246    0.0215   -0.0013    0.0046    0.3056    0.1717    0.0552   -0.0367
        9 C2     2py        0.0005   -0.0001    0.0576   -0.1216    0.3886   -0.4947    0.0091    0.1487   -0.3864   -0.7295
       10 C2     3py        0.0009   -0.0003    0.0670   -0.0347   -0.0448    0.0278   -0.4323   -0.1111   -1.1238   -0.1775
       11 C2     4py        0.0003   -0.0000    0.0185   -0.0172    0.0104   -0.0124   -0.2297   -0.1613   -0.4205    0.1038
       12 C2     2pz        0.0007   -0.0008    0.1016    0.3089   -0.3570   -0.3141   -0.0931    0.1624   -0.2926   -0.5738
       13 C2     3pz        0.0001   -0.0010   -0.0349   -0.0173    0.0353    0.0587    0.0785    0.7012   -0.5959   -0.7464
       14 C2     4pz       -0.0001   -0.0007    0.0097    0.0301   -0.0165   -0.0098    0.0595    0.3624   -0.1597   -0.1827
       15 C2     3d1-      -0.0003   -0.0003   -0.0134    0.0082    0.0041    0.0519   -0.0294    0.0544    0.0293   -0.0464
       16 C2     3d0        0.0004    0.0000    0.0256    0.0136   -0.0292    0.0221   -0.0376   -0.0822   -0.0381   -0.0349
       17 C2     3d2+       0.0000   -0.0004   -0.0198    0.0353   -0.0181    0.0167   -0.0266    0.0134   -0.0154    0.0165
       18 C3     1s         0.9155   -0.4030   -0.0357   -0.0185    0.0131   -0.0007    0.0834   -0.1171   -0.0442    0.0475
       19 C3     2s         0.0034   -0.0027    0.4037    0.4590    0.0018    0.0673    0.6656   -1.1694   -0.4112    0.3148
       20 C3     3s         0.0017   -0.0018   -0.0353   -0.0411    0.0033   -0.0168    0.5025   -0.9300   -0.2361    0.0415
       21 C3     4s         0.0018   -0.0011   -0.0107   -0.0255   -0.0102   -0.0105    0.1457   -0.3183   -0.0633   -0.0065
       22 C3     2py        0.0002    0.0009    0.1615    0.2063    0.0904    0.0067   -0.2736    0.0217    0.1169   -1.0284
       23 C3     3py       -0.0007    0.0011    0.0147   -0.0088    0.0432    0.0224   -0.6372    0.4144    0.2708   -0.8832
       24 C3     4py       -0.0003    0.0003    0.0410    0.0142    0.0147    0.0031   -0.2715    0.2710    0.1154   -0.1652
       25 C3     2pz        0.0003   -0.0007   -0.1040    0.1620    0.5223    0.2445    0.2106   -0.1353    0.5408    0.3997
       26 C3     3pz        0.0010   -0.0002    0.0355    0.0419   -0.0536    0.0217    0.1986    0.5160    1.3347    0.8910
       27 C3     4pz        0.0006   -0.0003   -0.0232    0.0243    0.0196    0.0150    0.0681    0.3920    0.4853    0.3017
       28 C3     3d1-       0.0000   -0.0004   -0.0086    0.0324    0.0541    0.0479   -0.0017   -0.0518   -0.0287   -0.0084
       29 C3     3d0        0.0007   -0.0000    0.0277    0.0377   -0.0147    0.0207    0.0758    0.0323    0.0041    0.0758
       30 C3     3d2+      -0.0000    0.0001   -0.0063   -0.0146   -0.0150    0.0060    0.0262   -0.0648   -0.0201    0.0737
       31 H2     1s        -0.0004   -0.0008    0.0397   -0.1279    0.2592   -0.2303   -0.1599   -0.2892   -0.4403    1.8316
       32 H2     2s        -0.0007   -0.0013   -0.1387    0.1267   -0.0800    0.0799   -0.1665   -0.2129   -0.3488    1.2515
       33 H3     1s        -0.0010    0.0005    0.0331    0.1701    0.2653    0.1343   -0.0865    0.5188    0.4495    1.2479
       34 H3     2s        -0.0015    0.0006   -0.0922   -0.1635   -0.1041   -0.0680   -0.0961    0.3953    0.3803    0.8651
 
          Orbital           11        12        13    
          Energy            0.4364    0.5439    0.5614
          Occ. No.          0.0000    0.0000    0.0000
 
        1 C1     2py        0.9487    0.5846   -1.1976
        2 C1     3py       -0.0991   -0.0151   -1.5945
        3 C1     4py       -0.3484   -0.2477   -0.3640
        4 C1     3d1-      -0.0798   -0.0931    0.0766
        5 C2     1s        -0.2173    0.1483    0.2860
        6 C2     2s        -1.8711    1.1483    2.5142
        7 C2     3s        -1.4155    2.1340    2.7886
        8 C2     4s        -0.3825    0.7736    0.9153
        9 C2     2py        1.0553   -1.1016    0.2649
       10 C2     3py        0.9543   -1.2388    0.7287
       11 C2     4py        0.0824   -0.2835    0.0747
       12 C2     2pz        0.4146    0.9782   -0.6647
       13 C2     3pz       -0.0255    0.9396   -1.1262
       14 C2     4pz       -0.1033    0.2014   -0.2732
       15 C2     3d1-       0.0668   -0.0484    0.0066
       16 C2     3d0        0.0510   -0.0219   -0.0697
       17 C2     3d2+      -0.0652    0.0026    0.0343
       18 C3     1s        -0.1446    0.1322    0.1316
       19 C3     2s        -1.2609    1.2881    0.9786
       20 C3     3s        -0.9950    0.5203    1.9470
       21 C3     4s        -0.2764    0.0999    0.7030
       22 C3     2py        0.5968   -0.5692   -1.1248
       23 C3     3py       -0.3052   -0.2838   -1.8990
       24 C3     4py       -0.3359   -0.0287   -0.5928
       25 C3     2pz        0.2797    2.1845   -0.9525
       26 C3     3pz        0.8727    2.8077   -0.4815
       27 C3     4pz        0.2943    0.5469    0.0411
       28 C3     3d1-      -0.0033   -0.0427    0.0083
       29 C3     3d0       -0.0416    0.0853    0.0417
       30 C3     3d2+      -0.0913    0.1289   -0.0102
       31 H2     1s         0.6883    1.8782   -0.6874
       32 H2     2s         0.5139    1.2505   -0.3619
       33 H3     1s         0.3757   -2.2474    1.9671
       34 H3     2s         0.2654   -1.4194    1.3067

      Molecular orbitals for symmetry species 4: b1 
 
          Orbital            1         2         3         4         5         6         7    
          Energy           -0.5963   -0.4153    0.1132    0.1300    0.2156    0.4181    0.4509
          Occ. No.          2.0000    2.0000    0.0000    0.0000    0.0000    0.0000    0.0000
 
        1 C1     2px        0.5556   -0.3092    0.1142   -0.3965   -0.0760   -1.3648   -3.0758
        2 C1     3px       -0.0659   -0.0419    0.1571   -0.0136    0.6699   -2.2820   -2.9670
        3 C1     4px       -0.0051   -0.0018    0.0578    0.1517    0.3805   -0.6008   -0.3795
        4 C1     3d1+      -0.0478    0.0508   -0.0529    0.0246    0.0246   -0.0743   -0.0639
        5 C2     2px        0.2437    0.4035   -1.1482    0.2354   -0.0839    1.3993    1.3053
        6 C2     3px       -0.0206   -0.0043   -0.6131    0.4688    0.0551    2.8428    0.7997
        7 C2     4px        0.0065   -0.0098   -0.0910    0.2073    0.0345    0.8455   -0.0862
        8 C2     3d2-      -0.0195   -0.0064   -0.0182    0.0227   -0.0030    0.0210    0.1548
        9 C2     3d1+      -0.0048    0.0470    0.0239   -0.0125    0.0209   -0.0026   -0.0140
       10 C3     2px        0.1643    0.6066    0.7906   -0.2474   -0.0379   -0.5141   -0.0241
       11 C3     3px       -0.0257   -0.0501    0.5248    0.1055   -0.7927   -1.2674    0.1110
       12 C3     4px       -0.0029   -0.0176    0.1274    0.1372   -0.3917   -0.4115    0.0759
       13 C3     3d2-      -0.0008   -0.0163   -0.0349    0.0204   -0.0205   -0.0092    0.1324
       14 C3     3d1+      -0.0143   -0.0247    0.0648    0.0084    0.0038    0.0468    0.0653
       15 H1     1s         0.3570   -0.2137    0.5840    0.3602    0.6642    0.2841    4.1004
       16 H1     2s        -0.1347    0.0794    0.2578    0.3226    0.5022    0.0006    2.8495
--
 
 
++    Molecular charges:
      ------------------
 
      Mulliken charges per centre and basis function type
      ---------------------------------------------------
 
                C1      C2      C3      H1      H2      H3    
      1s       1.9998  2.0005  2.0005  0.7057  0.5919  0.6248
      2s       0.8595  1.1805  1.1608  0.0894  0.0458  0.0629
      2px      1.1385  0.9934  0.9694  0.0000  0.0000  0.0000
      2pz      1.1186  0.9408  1.0269  0.0000  0.0000  0.0000
      2py      0.9526  1.0223  0.9388  0.0000  0.0000  0.0000
      3s      -0.0604  0.0294  0.0110  0.0000  0.0000  0.0000
      3px     -0.0367 -0.0095 -0.0176  0.0000  0.0000  0.0000
      3pz      0.0225  0.0691  0.0774  0.0000  0.0000  0.0000
      3py      0.0272  0.0382  0.0672  0.0000  0.0000  0.0000
      4s       0.0119  0.0127  0.0118  0.0000  0.0000  0.0000
      3d2+     0.0370  0.0226  0.0109  0.0000  0.0000  0.0000
      3d1+     0.0593  0.0348  0.0194  0.0000  0.0000  0.0000
      3d0      0.0183  0.0295  0.0266  0.0000  0.0000  0.0000
      3d1-     0.0271  0.0417  0.0585  0.0000  0.0000  0.0000
      3d2-     0.0319  0.0084  0.0265  0.0000  0.0000  0.0000
      4px      0.0012  0.0036  0.0047  0.0000  0.0000  0.0000
      4pz     -0.0026 -0.0116 -0.0104  0.0000  0.0000  0.0000
      4py      0.0030 -0.0097 -0.0038  0.0000  0.0000  0.0000
      Total    6.2088  6.3968  6.3784  0.7950  0.6377  0.6876
 
      N-E     -0.2088 -0.3968 -0.3784  0.2050  0.3623  0.3124
 
      Total electronic charge=   36.000000
 
      Total            charge=   -0.000000
--
 
 
++    Static properties:
      ------------------
 
 
      LoProp Charges per center
 

                   C1       C2       C3       H1       H2       H3    
      Nuclear      6.0000   6.0000   6.0000   1.0000   1.0000   1.0000
      Electronic  -6.2108  -6.1292  -6.1367  -0.8739  -0.8775  -0.8774
 
      Total       -0.2108  -0.1292  -0.1367   0.1261   0.1225   0.1226
--
 
 
++    Natural Bond Order analysis
      ---------------------------
      Based on LoProp computed density
      -------------------------------------------------------------------------------------
      Atom A:Gen.  Atom B:Gen.  Bond Order
      -------------------------------------------------------------------------------------
      NBO located      0.995 non-bonded electrons on atom C1    :E  
      NBO located      0.994 non-bonded electrons on atom C2    :E  
      NBO located      0.936 non-bonded electrons on atom C2    :E  
      The remaining   19.447 electrons are to be considered as diffuse
--
 
 
++    Molecular properties:
      ---------------------
 
      Charge (e):
                      =   -0.0000
      Dipole Moment (debye):
      Origin of the operator (angstrom)=    0.0000    0.0000    0.0000
                   X=  0.0000E+00               Y=  0.0000E+00               Z= -3.5753E-01           Total=  3.5753E-01
      Quadrupole Moment (debye*angstrom):
      Origin of the operator (angstrom)=    0.0000    0.0000   -0.0000
                  XX= -3.4178E+01              XY=  0.0000E+00              XZ=  0.0000E+00              YY= -2.9304E+01
                  YZ=  0.0000E+00              ZZ= -2.7256E+01
      In traceless form (debye*angstrom)
                  XX= -5.8977E+00              XY=  0.0000E+00              XZ=  0.0000E+00              YY=  1.4127E+00
                  YZ=  0.0000E+00              ZZ=  4.4849E+00
--
 
 
      Input file to MOLDEN was generated!
 
 ###############################################################################
 ###############################################################################
 ###                                                                         ###
 ###                                                                         ###
 ###    WARNING: RunFile label nBas                                          ###
 ###    was used       65 times                                              ###
 ###                                                                         ###
 ###                                                                         ###
 ###############################################################################
 ###############################################################################
--- Stop Module: scf at Fri Dec  5 01:00:27 2025 /rc=_RC_ALL_IS_WELL_ ---
*** files: cyclo-freq.LprOrb cyclo-freq.scf.molden cyclo-freq.ScfOrb xmldump
    saved to directory /home/charlie/input_examples/molcas/cyclo-freq
--- Module scf spent 2 seconds ---

*** symbolic link created: INPORB -> cyclo-freq.ScfOrb
--- Start Module: rasscf at Fri Dec  5 01:00:30 2025 ---
 
()()()()()()()()()()()()()()()()()()()()()()()()()()()()()()()()()()()()()()()()()()()()()()()()()()

                                              &RASSCF

             launched 10 MPI processes, running in PARALLEL mode (work-sharing enabled)
                       available to each process: 2.0 GB of memory, 1 thread
                                        master pid: 3071736
()()()()()()()()()()()()()()()()()()()()()()()()()()()()()()()()()()()()()()()()()()()()()()()()()()
 
 
      Header of the ONEINT file:
      --------------------------
      
      Integrals generated by Gateway/Seward, Fri Dec  5 01:00:18 2025
 
 
      OrdInt status: non-squared
 
 
      Cartesian coordinates in angstrom:
      -----------------------------------------------------
      No.  Label        X            Y            Z        
      -----------------------------------------------------
       1   C1         0.00000000   0.00000000  -1.24267010
       2   C2         0.00000000   1.17717498  -0.29865242
       3   C3         0.00000000   0.73828919   0.97499671
       4   H1         0.87843354   0.00000000  -1.89206240
       5   H2         0.00000000   2.20221571  -0.62295250
       6   H3         0.00000000   1.34948883   1.86002924
       7   C2         0.00000000  -1.17717498  -0.29865242
       8   C3         0.00000000  -0.73828919   0.97499671
       9   H1        -0.87843354   0.00000000  -1.89206240
      10   H2         0.00000000  -2.20221571  -0.62295250
      11   H3         0.00000000  -1.34948883   1.86002924
      -----------------------------------------------------
      Nuclear repulsion energy =  156.55131783
 
++    Wave function specifications:
      -----------------------------
 
      Number of closed shell electrons          30
      Number of electrons in active shells       6
      Max number of holes in RAS1 space          0
      Max nr of electrons in RAS3 space          0
      Number of inactive orbitals               15
      Number of active orbitals                  5
      Number of secondary orbitals              82
      Spin quantum number                      0.0
      State symmetry                             1
--
 
++    Orbital specifications:
      -----------------------
 
      Symmetry species                           1   2   3   4
                                                a1  a2  b2  b1
      Frozen orbitals                            0   0   0   0
      Inactive orbitals                          9   0   6   0
      Active orbitals                            0   2   0   3
      RAS1 orbitals                              0   0   0   0
      RAS2 orbitals                              0   2   0   3
      RAS3 orbitals                              0   0   0   0
      Secondary orbitals                        32   9  28  13
      Deleted orbitals                           0   0   0   0
      Number of basis functions                 41  11  34  16
--
 
++    CI expansion specifications:
      ----------------------------
 
      Number of CSFs                            28
      Number of determinants                    31
      Number of root(s) required                 1
      Root chosen for geometry opt.              1
      CI root used                               1
         
      highest root included in the CI            1
      max. size of the explicit Hamiltonian     28
--
 
++    Optimization specifications:
      ----------------------------
 
      RASSCF algorithm: Conventional
      Maximum number of macro iterations        50
      Maximum number of SX iterations           25
      Threshold for RASSCF energy            1.000E-08
      Threshold for max MO rotation          1.000E-01
      Threshold for max BLB element          1.000E-04
      Level shift parameter                  5.000E-01
      Make Quasi-Newton update
--
 
      Orbitals from runfile: scf orbitals
      The MO-coefficients are taken from scf orbitals on runfile
 
      Total molecular charge    0.00
 
      ************************************************************************************************************************
      *                                                                                                                      *
      *                                            Wave function control section                                             *
      *                                                                                                                      *
      ************************************************************************************************************************
 
 
                                         RASSCF iterations: Energy and convergence statistics
                                         ----------------------------------------------------
 
      Iter CI   SX   CI       RASSCF       Energy    max ROT     max BLB   max BLB  Level Ln srch  Step   QN   Walltime
          iter iter root      energy       change     param      element    value   shift minimum  type update hh:mm:ss
 Nr of preliminary CI iterations:   1
        1   1    7    1  -192.84812576    0.00E+00  -4.96E-01*   3   6 4 -1.27E-02*  0.00   0.00    SX    NO    0:00:00
        2   1    6    1  -192.88271318   -3.46E-02* -4.85E-02    1   7 2 -2.50E-02*  0.03   0.00    SX    NO    0:00:00
        3   1    6    1  -192.88545988   -2.75E-03* -2.04E-02    1   7 2 -6.33E-03*  0.03   0.00    SX    NO    0:00:00
        4   1    5    1  -192.88593977   -4.80E-04*  9.19E-03    1   7 2 -2.66E-03*  0.03   0.00    SX    NO    0:00:00
        5   1    5    1  -192.88603178   -9.20E-05*  7.39E-03    1   6 2 -1.13E-03*  0.03   1.83    LS   YES    0:00:00
        6   1    5    1  -192.88605512   -2.33E-05* -1.21E-03    2   8 4 -4.75E-04*  0.03   1.02    QN   YES    0:00:00
        7   1    4    1  -192.88605644   -1.32E-06* -9.03E-04    1   7 2  1.16E-04*  0.03   1.15    QN   YES    0:00:00
        8   1    4    1  -192.88605668   -2.36E-07*  1.80E-04    2   8 4  4.57E-05   0.03   0.98    QN   YES    0:00:00
        9   1    4    1  -192.88605669   -1.51E-08*  8.27E-05    5  17 3 -2.28E-05   0.03   1.04    QN   YES    0:00:00
       10   1    3    1  -192.88605670   -3.58E-09  -3.74E-05    5  21 1 -3.61E-06   0.03   1.07    QN   YES    0:00:00
      Convergence after 10 iterations
       11   1    3    1  -192.88605670   -3.19E-10  -3.74E-05    5  17 3 -2.63E-06   0.03   1.07    QN   YES    0:00:00
 
      ************************************************************************************************************************
                                                      Wave function printout:
                       occupation of active orbitals, and spin coupling of open shells (u,d: Spin up or down)
      ************************************************************************************************************************
 
      Note: transformation to natural orbitals
      has been made, which may change the order of the CSFs.
 
      printout of CI-coefficients larger than  0.05 for root  1
      energy=    -192.886057
      conf/sym  22444     Coeff  Weight
             1  22 200   0.07726 0.00597
             7  20 220  -0.95622 0.91436
            10  20 202   0.08316 0.00692
            14  ud 2ud   0.13637 0.01860
            19  02 220   0.08219 0.00675
            25  uu 2dd  -0.13440 0.01806
            28  00 222   0.16489 0.02719
 
      Natural orbitals and occupation numbers for root  1
      sym 2:   1.891737   0.065828
      sym 4:   1.999512   1.934190   0.108733
 
      ************************************************************************************************************************
      *                                                                                                                      *
      *                                                    Final results                                                     *
      *                                                                                                                      *
      ************************************************************************************************************************
 
 
++    Final optimization conditions:
      ------------------------------
 
      Average CI energy                            -192.88605670
      RASSCF energy for state  1                   -192.88605670
      Super-CI energy                                -0.00000000
      RASSCF energy change                           -0.00000000
      Max change in MO coefficients               3.915E-05
      Max non-diagonal density matrix element    -3.744E-05
      Maximum BLB matrix element                 -2.632E-06
      (orbital pair   5,  17 in symmetry   3)
      Norm of electronic gradient            1.269E-05
--
 
 
      Final state energy(ies):
      ------------------------
 
::    RASSCF root number  1 Total energy:   -192.88605670
 
++    Molecular orbitals:
      -------------------
 
      Pseudonatural active orbitals and approximate occupation numbers
 
 
 
 
      Molecular orbitals for symmetry species 1: a1 
 
 
      Orbital                 1         2         3         4         5         6         7         8         9        10
      Energy           -11.2282  -11.2190  -11.2158   -1.1439   -0.9513   -0.7537   -0.6934   -0.5256   -0.5065    0.0906
      Occ. No.           2.0000    2.0000    2.0000    2.0000    2.0000    2.0000    2.0000    2.0000    2.0000    0.0000
 
     1 C1     1s         0.9990   -0.0115    0.0374   -0.0504    0.0468   -0.0174   -0.0060    0.0005   -0.0069   -0.1598
     2 C1     2s         0.0009    0.0005    0.0007    0.1322   -0.4046    0.2451   -0.0231    0.0134    0.0928   -1.2815
     3 C1     3s        -0.0008    0.0000    0.0010   -0.1452    0.1203   -0.0540   -0.0342   -0.0176   -0.0060   -0.8739
     4 C1     4s         0.0014   -0.0001    0.0004   -0.0361    0.0420   -0.0232   -0.0074   -0.0096   -0.0003   -0.2280
     5 C1     2pz       -0.0006    0.0002   -0.0001    0.0758    0.0495   -0.1957   -0.2270   -0.3655    0.4380    0.2674
     6 C1     3pz       -0.0003    0.0000    0.0003   -0.0123    0.0327   -0.0186    0.0248   -0.0054   -0.0226   -0.0486
     7 C1     4pz        0.0001   -0.0000    0.0000    0.0064    0.0138   -0.0139    0.0020   -0.0064   -0.0046   -0.1206
     8 C1     3d0        0.0001   -0.0000    0.0001    0.0054    0.0021    0.0070   -0.0163    0.0173    0.0025   -0.0049
     9 C1     3d2+       0.0002   -0.0000    0.0001   -0.0049   -0.0023    0.0214    0.0129    0.0446   -0.0319   -0.0263
    10 C2     1s         0.0390    0.2508   -0.9674   -0.0471    0.0010    0.0240    0.0048   -0.0041   -0.0077   -0.0797
    11 C2     2s         0.0010    0.0003   -0.0037    0.4137   -0.1332   -0.4365    0.1262   -0.0781    0.0329   -0.6679
    12 C2     3s        -0.0001   -0.0007   -0.0016   -0.0287    0.0067    0.0440    0.0136    0.0038   -0.0056   -0.4268
    13 C2     4s        -0.0001    0.0002   -0.0020    0.0021    0.0080    0.0236    0.0003    0.0087    0.0028   -0.1055
    14 C2     2py       -0.0006   -0.0000    0.0000   -0.0935    0.0270   -0.2194    0.3627   -0.0974   -0.3030   -0.2053
    15 C2     3py        0.0003    0.0001    0.0001    0.0449   -0.0410   -0.0297   -0.0672   -0.0346    0.0328    0.0425
    16 C2     4py        0.0002   -0.0000   -0.0000   -0.0056    0.0004   -0.0225    0.0201   -0.0096   -0.0059    0.0752
    17 C2     2pz       -0.0010    0.0006    0.0001    0.0327    0.2352   -0.0850   -0.0961    0.4880   -0.0911   -0.0621
    18 C2     3pz       -0.0002   -0.0003   -0.0003   -0.0121    0.0113    0.0224    0.0390   -0.0562    0.0328   -0.2050
    19 C2     4pz        0.0001   -0.0002    0.0001    0.0234    0.0395    0.0012    0.0064    0.0166    0.0036   -0.0996
    20 C2     3d1-       0.0004   -0.0003    0.0002   -0.0027   -0.0221    0.0276   -0.0012    0.0002    0.0515   -0.0211
    21 C2     3d0        0.0001    0.0004   -0.0000    0.0123    0.0014    0.0004   -0.0040    0.0451    0.0050    0.0173
    22 C2     3d2+      -0.0002    0.0002    0.0003   -0.0162    0.0160    0.0314   -0.0035    0.0342    0.0017    0.0462
    23 C3     1s         0.0019    0.9678    0.2515   -0.0524   -0.0373   -0.0054    0.0015   -0.0064    0.0111   -0.0304
    24 C3     2s         0.0003    0.0030    0.0012    0.3959    0.4425    0.2586    0.0813    0.0299   -0.1007   -0.1710
    25 C3     3s         0.0001    0.0004    0.0010   -0.0503   -0.0694   -0.0088    0.0055   -0.0104    0.0073    0.0618
    26 C3     4s         0.0000    0.0016    0.0007   -0.0036   -0.0270   -0.0116    0.0008   -0.0008   -0.0023    0.0591
    27 C3     2py       -0.0002   -0.0002   -0.0005   -0.0790   -0.0329   -0.2015    0.2163    0.4647    0.5038   -0.1584
    28 C3     3py       -0.0003    0.0005   -0.0000   -0.0159    0.0569    0.0385   -0.0845   -0.0559   -0.0577   -0.1070
    29 C3     4py       -0.0001    0.0000   -0.0000   -0.0120   -0.0015   -0.0105   -0.0011    0.0116    0.0044    0.0180
    30 C3     2pz       -0.0003    0.0001    0.0004   -0.1421    0.0884    0.2834    0.2732   -0.3157    0.2327   -0.3287
    31 C3     3pz       -0.0003    0.0001   -0.0004   -0.0033    0.0700   -0.0353   -0.0935    0.0419    0.0063   -0.3295
    32 C3     4pz       -0.0000    0.0002   -0.0000   -0.0126    0.0234    0.0245    0.0105   -0.0086    0.0077   -0.0471
    33 C3     3d1-      -0.0000   -0.0000    0.0003   -0.0038   -0.0005    0.0186   -0.0014   -0.0014    0.0330    0.0108
    34 C3     3d0        0.0000    0.0002   -0.0002    0.0141    0.0067   -0.0039    0.0049    0.0325    0.0455   -0.0261
    35 C3     3d2+       0.0000   -0.0003   -0.0002   -0.0177   -0.0277   -0.0250    0.0006    0.0193    0.0270    0.0132
    36 H1     1s         0.0001   -0.0001    0.0000    0.1516   -0.1641    0.1504    0.1484    0.1956   -0.1884    0.8567
    37 H1     2s        -0.0010   -0.0001    0.0000    0.0460    0.0863   -0.0920    0.0054   -0.0599    0.0420    0.7197
    38 H2     1s        -0.0002   -0.0000    0.0006    0.0385    0.0098   -0.1274    0.2783   -0.1533   -0.1726    0.5080
    39 H2     2s        -0.0002   -0.0003    0.0012   -0.0248    0.0454    0.1497   -0.0520    0.0725    0.0421    0.4513
    40 H3     1s         0.0003   -0.0007   -0.0002    0.0874    0.0089    0.1097    0.3061    0.0203    0.2776    0.6591
    41 H3     2s         0.0003   -0.0013   -0.0002    0.0104   -0.1356   -0.0674   -0.0290   -0.0094   -0.0791    0.5320
 
 
      Orbital                11
      Energy             0.0969
      Occ. No.           0.0000
 
     1 C1     1s         0.0498
     2 C1     2s         0.4463
     3 C1     3s         0.4134
     4 C1     4s         0.1430
     5 C1     2pz        0.0680
     6 C1     3pz        0.2733
     7 C1     4pz        0.1158
     8 C1     3d0        0.0086
     9 C1     3d2+       0.0227
    10 C2     1s        -0.0072
    11 C2     2s         0.0283
    12 C2     3s         0.1779
    13 C2     4s         0.0866
    14 C2     2py       -0.0010
    15 C2     3py        0.0244
    16 C2     4py        0.0278
    17 C2     2pz        0.3223
    18 C2     3pz        0.6169
    19 C2     4pz        0.2612
    20 C2     3d1-       0.0543
    21 C2     3d0       -0.0618
    22 C2     3d2+      -0.0030
    23 C3     1s        -0.1392
    24 C3     2s        -1.2119
    25 C3     3s        -0.9354
    26 C3     4s        -0.2766
    27 C3     2py       -0.2868
    28 C3     3py       -0.1845
    29 C3     4py       -0.0211
    30 C3     2pz       -0.1185
    31 C3     3pz        0.3985
    32 C3     4pz        0.2692
    33 C3     3d1-      -0.0712
    34 C3     3d0        0.0241
    35 C3     3d2+       0.0230
    36 H1     1s         0.2172
    37 H1     2s         0.1614
    38 H2     1s         0.3120
    39 H2     2s         0.2550
    40 H3     1s         0.4663
    41 H3     2s         0.4186
 
 
 
      Molecular orbitals for symmetry species 2: a2 
 
 
      Orbital                 1         2
      Energy            -0.2934    0.3114
      Occ. No.           1.8917    0.0658
 
     1 C1     3d2-       0.0352   -0.0215
     2 C2     2px        0.7321   -0.7468
     3 C2     3px       -0.0126    0.1342
     4 C2     4px       -0.0201    0.0603
     5 C2     3d2-      -0.0018   -0.0045
     6 C2     3d1+       0.0289    0.0108
     7 C3     2px        0.5621    1.0338
     8 C3     3px       -0.0068   -0.1329
     9 C3     4px       -0.0154   -0.0873
    10 C3     3d2-       0.0392    0.0239
    11 C3     3d1+      -0.0337   -0.0073
 
 
 
      Molecular orbitals for symmetry species 3: b2 
 
 
      Orbital                 1         2         3         4         5         6         7
      Energy           -11.2183  -11.2158   -0.9608   -0.7262   -0.5614   -0.4995    0.0995
      Occ. No.           2.0000    2.0000    2.0000    2.0000    2.0000    2.0000    0.0000
 
     1 C1     2py        0.0003    0.0001    0.1255   -0.2331   -0.0192    0.5250   -0.2553
     2 C1     3py        0.0000   -0.0010   -0.0068    0.0362    0.0098   -0.0492   -0.4016
     3 C1     4py       -0.0001   -0.0004    0.0174    0.0018    0.0028   -0.0087   -0.1546
     4 C1     3d1-       0.0001    0.0004    0.0186   -0.0225   -0.0153    0.0465    0.0392
     5 C2     1s         0.3304    0.9439   -0.0505    0.0118    0.0180   -0.0058    0.1433
     6 C2     2s         0.0006    0.0032    0.5540   -0.3286   -0.0674    0.0128    1.2429
     7 C2     3s        -0.0002    0.0013   -0.0730    0.0332    0.0243   -0.0011    0.9980
     8 C2     4s         0.0005    0.0019   -0.0253    0.0213   -0.0008    0.0043    0.3061
     9 C2     2py        0.0005    0.0000    0.0590   -0.1210    0.3892   -0.4930    0.0065
    10 C2     3py        0.0008   -0.0002    0.0687   -0.0343   -0.0441    0.0255   -0.4345
    11 C2     4py        0.0002   -0.0000    0.0185   -0.0168    0.0098   -0.0116   -0.2299
    12 C2     2pz        0.0008   -0.0007    0.1020    0.3060   -0.3559   -0.3166   -0.0952
    13 C2     3pz        0.0001   -0.0009   -0.0357   -0.0173    0.0342    0.0573    0.0714
    14 C2     4pz       -0.0001   -0.0006    0.0094    0.0298   -0.0161   -0.0093    0.0562
    15 C2     3d1-      -0.0003   -0.0003   -0.0133    0.0080    0.0044    0.0513   -0.0295
    16 C2     3d0        0.0004    0.0000    0.0255    0.0141   -0.0296    0.0215   -0.0375
    17 C2     3d2+       0.0001   -0.0003   -0.0197    0.0348   -0.0180    0.0164   -0.0265
    18 C3     1s         0.9438   -0.3311   -0.0360   -0.0183    0.0131   -0.0006    0.0844
    19 C3     2s         0.0034   -0.0022    0.4026    0.4600    0.0001    0.0672    0.6750
    20 C3     3s         0.0016   -0.0016   -0.0362   -0.0388    0.0045   -0.0156    0.5117
    21 C3     4s         0.0020   -0.0010   -0.0114   -0.0253   -0.0096   -0.0102    0.1488
    22 C3     2py        0.0003    0.0008    0.1623    0.2065    0.0896    0.0078   -0.2760
    23 C3     3py       -0.0007    0.0009    0.0150   -0.0083    0.0422    0.0231   -0.6439
    24 C3     4py       -0.0003    0.0003    0.0404    0.0136    0.0140    0.0030   -0.2749
    25 C3     2pz        0.0004   -0.0007   -0.1027    0.1606    0.5207    0.2452    0.2148
    26 C3     3pz        0.0009   -0.0001    0.0377    0.0415   -0.0522    0.0217    0.2009
    27 C3     4pz        0.0005   -0.0002   -0.0226    0.0242    0.0190    0.0147    0.0672
    28 C3     3d1-       0.0001   -0.0004   -0.0087    0.0322    0.0539    0.0479   -0.0013
    29 C3     3d0        0.0007    0.0000    0.0277    0.0370   -0.0154    0.0202    0.0755
    30 C3     3d2+       0.0000    0.0001   -0.0065   -0.0143   -0.0148    0.0061    0.0268
    31 H2     1s        -0.0003   -0.0008    0.0401   -0.1303    0.2631   -0.2313   -0.1533
    32 H2     2s        -0.0006   -0.0013   -0.1384    0.1255   -0.0783    0.0776   -0.1625
    33 H3     1s        -0.0010    0.0004    0.0332    0.1726    0.2677    0.1370   -0.0867
    34 H3     2s        -0.0015    0.0005   -0.0924   -0.1620   -0.1017   -0.0669   -0.0968
 
 
 
      Molecular orbitals for symmetry species 4: b1 
 
 
      Orbital                 1         2         3         4
      Energy            -0.5718   -0.4231    0.1709    0.1292
      Occ. No.           1.9995    1.9342    0.1087    0.0000
 
     1 C1     2px        0.6301   -0.1015    0.1745   -0.3666
     2 C1     3px       -0.0442   -0.0581    0.0371    0.0077
     3 C1     4px       -0.0039   -0.0022   -0.0208    0.1541
     4 C1     3d1+      -0.0625    0.0317   -0.0413    0.0157
     5 C2     2px        0.0825    0.4780   -0.9195    0.0453
     6 C2     3px       -0.0196   -0.0210    0.1066    0.3538
     7 C2     4px        0.0098   -0.0065    0.0585    0.1877
     8 C2     3d2-      -0.0162   -0.0105   -0.0090    0.0187
     9 C2     3d1+      -0.0196    0.0369   -0.0092   -0.0080
    10 C3     2px       -0.0466    0.6233    0.6631   -0.1066
    11 C3     3px       -0.0059   -0.0660   -0.1017    0.2066
    12 C3     4px        0.0031   -0.0152   -0.0402    0.1639
    13 C3     3d2-       0.0043   -0.0154   -0.0221    0.0141
    14 C3     3d1+      -0.0048   -0.0236    0.0169    0.0179
    15 H1     1s         0.4102   -0.0813    0.1399    0.4314
    16 H1     2s        -0.1541    0.0289   -0.0395    0.3476
--
 
      Von Neumann Entropy (Root   1) =  0.51348
 

      Mulliken population analysis for root number:  1
      -----------------------------------------------
 
 
++    Molecular charges:
      ------------------
 
      Mulliken charges per centre and basis function type
      ---------------------------------------------------
 
                C1      C2      C3      H1      H2      H3    
      1s       1.9998  2.0004  2.0004  0.7106  0.5997  0.6309
      2s       0.8643  1.1786  1.1613  0.0892  0.0446  0.0613
      2px      1.1434  0.9919  0.9711  0.0000  0.0000  0.0000
      2pz      1.1176  0.9381  1.0235  0.0000  0.0000  0.0000
      2py      0.9562  1.0197  0.9403  0.0000  0.0000  0.0000
      3s      -0.0598  0.0284  0.0106  0.0000  0.0000  0.0000
      3px     -0.0335 -0.0061 -0.0139  0.0000  0.0000  0.0000
      3pz      0.0231  0.0670  0.0762  0.0000  0.0000  0.0000
      3py      0.0260  0.0377  0.0652  0.0000  0.0000  0.0000
      4s       0.0119  0.0128  0.0120  0.0000  0.0000  0.0000
      3d2+     0.0369  0.0224  0.0108  0.0000  0.0000  0.0000
      3d1+     0.0604  0.0296  0.0159  0.0000  0.0000  0.0000
      3d0      0.0182  0.0296  0.0263  0.0000  0.0000  0.0000
      3d1-     0.0270  0.0413  0.0582  0.0000  0.0000  0.0000
      3d2-     0.0282  0.0082  0.0237  0.0000  0.0000  0.0000
      4px      0.0010  0.0030  0.0036  0.0000  0.0000  0.0000
      4pz     -0.0027 -0.0115 -0.0103  0.0000  0.0000  0.0000
      4py      0.0029 -0.0094 -0.0036  0.0000  0.0000  0.0000
      Total    6.2209  6.3820  6.3713  0.7999  0.6443  0.6922
 
      N-E     -0.2209 -0.3820 -0.3713  0.2001  0.3557  0.3078
 
      Total electronic charge=   36.000000
 
      Total            charge=   -0.000000
--
 
 

      Expectation values of various properties for root number:  1
      -----------------------------------------------------------
 
 
++    Molecular properties:
      ---------------------
 
      Charge (e):
                      =   -0.0000
      Dipole Moment (debye):
      Origin of the operator (angstrom)=    0.0000    0.0000    0.0000
                   X=  0.0000E+00               Y=  0.0000E+00               Z= -2.6464E-01           Total=  2.6464E-01
      Quadrupole Moment (debye*angstrom):
      Origin of the operator (angstrom)=    0.0000    0.0000   -0.0000
                  XX= -3.3416E+01              XY=  0.0000E+00              XZ=  0.0000E+00              YY= -2.9168E+01
                  YZ=  0.0000E+00              ZZ= -2.7706E+01
      In traceless form (debye*angstrom)
                  XX= -4.9785E+00              XY=  0.0000E+00              XZ=  0.0000E+00              YY=  1.3920E+00
                  YZ=  0.0000E+00              ZZ=  3.5865E+00
--
 

      LoProp population analysis for root number:  1
      -----------------------------------------------
 
 
++    LoProp analysis:
      ----------------
 
 
 
++    Static properties:
      ------------------
 
 
      LoProp Charges per center
 

                   C1       C2       C3       H1       H2       H3    
      Nuclear      6.0000   6.0000   6.0000   1.0000   1.0000   1.0000
      Electronic  -6.2123  -6.1203  -6.1292  -0.8801  -0.8823  -0.8818
 
      Total       -0.2123  -0.1203  -0.1292   0.1199   0.1177   0.1182
--
 
 
      Natural Bond Order analysis for root number:  1
 
++    Natural Bond Order analysis
      ---------------------------
      Based on LoProp computed density
      -------------------------------------------------------------------------------------
      Atom A:Gen.  Atom B:Gen.  Bond Order
      -------------------------------------------------------------------------------------
      NBO located      0.995 non-bonded electrons on atom C1    :E  
      NBO located      0.994 non-bonded electrons on atom C2    :E  
      NBO located      0.934 non-bonded electrons on atom C2    :E  
      The remaining   19.372 electrons are to be considered as diffuse
--
 
--
 
 
      Input file to MOLDEN was generated!
 
      Average orbitals are written to the RASORB file
      Natural orbitals for root   1 are written to the RASORB.1 file
      Spin density orbitals for root   1 are written to the SPDORB.1 file
 
--- Stop Module: rasscf at Fri Dec  5 01:00:33 2025 /rc=_RC_ALL_IS_WELL_ ---
*** files: cyclo-freq.LprOrb cyclo-freq.rasscf.molden cyclo-freq.RasOrb cyclo-freq.RasOrb.1 cyclo-freq.SpdOrb.1 xmldump
    saved to directory /home/charlie/input_examples/molcas/cyclo-freq
--- Module rasscf spent 2 seconds ---

*** symbolic link created: INPORB -> cyclo-freq.RasOrb
--- Start Module: mckinley at Fri Dec  5 01:00:36 2025 ---
 
()()()()()()()()()()()()()()()()()()()()()()()()()()()()()()()()()()()()()()()()()()()()()()()()()()

                                             &MCKINLEY

             launched 10 MPI processes, running in PARALLEL mode (work-sharing enabled)
                       available to each process: 2.0 GB of memory, 1 thread
                                        master pid: 3071868
()()()()()()()()()()()()()()()()()()()()()()()()()()()()()()()()()()()()()()()()()()()()()()()()()()
 
 
                     Threshold for contributions to the gradient or Hessian: 1.000E-07
 
 **************************************************************************************************************************
 *                                                                                                                        *
 *                 All data is written to disk, and could be accessed through the MCLR or RASSI program.                  *
 *                                                                                                                        *
 **************************************************************************************************************************
--- Stop Module: mckinley at Fri Dec  5 01:01:16 2025 /rc=_RC_INVOKED_OTHER_MODULE_ ---
*** files: xmldump
    saved to directory /home/charlie/input_examples/molcas/cyclo-freq
--- Module mckinley spent 39 seconds ---

*** symbolic link created: INPORB -> cyclo-freq.RasOrb
--- Start Module: mclr at Fri Dec  5 01:01:18 2025 ---
 
()()()()()()()()()()()()()()()()()()()()()()()()()()()()()()()()()()()()()()()()()()()()()()()()()()

                                               &MCLR

             launched 10 MPI processes, running in PARALLEL mode (work-sharing enabled)
                       available to each process: 2.0 GB of memory, 1 thread
                                        master pid: 3071997
()()()()()()()()()()()()()()()()()()()()()()()()()()()()()()()()()()()()()()()()()()()()()()()()()()
 
 Ordinary integral handling
 OrdInt status: non-squared
 
++   Wave function specifications:
     -----------------------------
 
     Number of closed shell electrons             30
     Number of electrons in active shells          6
     Max number of holes in RAS1 space             0
     Max number of electrons in RAS3 space         0
     Number of inactive orbitals                  15
     Number of active orbitals                     5
     Number of secondary orbitals                 82
     Spin quantum number                         0.0
     State symmetry                                1
     Number of CI roots                            1
     States considered                             1
     Weights                                   1.000
 
     Symmetry species                              1     2     3     4
     Skipped sym. species                          0     0     0     0
     Frozen orbitals                               0     0     0     0
     Inactive orbitals                             9     0     6     0
     Active orbitals                               0     2     0     3
     RAS1 orbitals                                 0     0     0     0
     RAS2 orbitals                                 0     2     0     3
     RAS3 orbitals                                 0     0     0     0
     Deleted orbitals                              0     0     0     0
     Number of basis functions                    41    11    34    16
     Number of orbitals                           41    11    34    16
     Number of configurations                     28     0    22     0
     Number of combinations                       31     0    24     0
     Natural orbitals are used in the last CI
     RASSCF state energy =           -192.8860566973
     Size of explicit Hamiltonian in PCG:        100
--
 
     Convergence threshold=               1.0000E-04
     Max number of iterations in PCG:            200
 
++   Perturbation specifications:
     ----------------------------
 
     Number of perturbations in each symmetry     12   5  11   8
     Type of perturbation:                         Hessian         
--
 
++   Perturbations:
     --------------
 
     -------------------------------------
      No.    Symmetry    Center Direction 
     -------------------------------------
       1       a1           C1         z
       2       a1           C2         y
       3       a1           C2         z
       4       a1           C3         y
       5       a1           C3         z
       6       a1           H1         x
       7       a1           H1         z
       8       a1           H2         y
       9       a1           H2         z
      10       a1           H3         y
      11       a1           H3         z
      12       a1           MLTPL  1 Z
      13       a2           C2         x
      14       a2           C3         x
      15       a2           H1         y
[...]
 
 
                         7         8         9        10        11        12
 
            Freq.     347.57    492.54    661.17    663.72    825.67    852.22                                               
 
 
                        13        14        15        16        17        18
 
            Freq.     872.44    880.48    949.68    957.73   1007.31   1041.33                                               
 
 
                        19        20        21        22        23        24
 
            Freq.    1173.09   1184.00   1235.05   1363.96   1406.14   1491.57                                               
 
 
                        25        26        27        28        29        30
 
            Freq.    1568.47   1632.05   1699.02   3128.63   3139.04   3305.27                                               
 
 
                        31        32        33
 
            Freq.    3315.44   3334.09   3341.28                                                                             
 
 
 Masses:
 =======
  12  13  12  12  12   1   1   1   1   1   1
 
 
 Frequencies:
 ============
                         1         2         3         4         5         6
 
            Freq.     i12.83    i11.39     i9.44      0.04      0.05      0.11                                               
 
 
                         7         8         9        10        11        12
 
            Freq.     346.64    489.42    662.94    663.51    838.55    855.93                                               
 
 
                        13        14        15        16        17        18
 
            Freq.     871.49    879.04    960.35    978.30   1015.12   1042.66                                               
 
 
                        19        20        21        22        23        24
 
            Freq.    1170.88   1187.19   1233.28   1384.24   1417.40   1488.84                                               
 
 
                        25        26        27        28        29        30
 
            Freq.    1579.26   1614.76   1689.58   3140.70   3159.82   3302.61                                               
 
 
                        31        32        33
 
            Freq.    3312.25   3330.29   3339.92                                                                             
 
 
 Masses:
 =======
  12  14  12  12  12   1   1   1   1   1   1
 
 
 Frequencies:
 ============
                         1         2         3         4         5         6
 
            Freq.     i12.82    i11.32     i9.35      0.04      0.05      0.11                                               
 
 
                         7         8         9        10        11        12
 
            Freq.     344.37    486.71    662.92    663.34    828.12    853.89                                               
 
 
                        13        14        15        16        17        18
 
            Freq.     870.17    877.64    954.68    976.50   1010.96   1041.58                                               
 
 
                        19        20        21        22        23        24
 
            Freq.    1168.58   1186.91   1231.82   1381.58   1411.55   1486.15                                               
 
 
                        25        26        27        28        29        30
 
            Freq.    1578.12   1597.07   1684.83   3140.69   3159.82   3297.76                                               
 
 
                        31        32        33
 
            Freq.    3310.33   3328.08   3339.53                                                                             
 
 
 Masses:
 =======
  12  12  12  13  12   1   1   1   1   1   1
 
 
 Frequencies:
 ============
                         1         2         3         4         5         6
 
            Freq.     i12.74    i11.39     i9.51      0.04      0.05      0.11                                               
 
 
                         7         8         9        10        11        12
 
            Freq.     348.48    489.21    658.70    663.09    843.68    849.59                                               
 
 
                        13        14        15        16        17        18
 
            Freq.     869.84    879.83    964.87    980.35   1020.19   1034.03                                               
 
 
                        19        20        21        22        23        24
 
            Freq.    1172.82   1184.67   1235.03   1383.78   1422.47   1482.16                                               
 
 
                        25        26        27        28        29        30
 
            Freq.    1579.66   1620.33   1686.39   3140.70   3159.82   3300.47                                               
 
 
                        31        32        33
 
            Freq.    3313.73   3331.85   3338.98                                                                             
 
 
 Masses:
 =======
  12  12  12  14  12   1   1   1   1   1   1
 
 
 Frequencies:
 ============
                         1         2         3         4         5         6
 
            Freq.     i12.65    i11.32     i9.46      0.04      0.05      0.11                                               
 
 
                         7         8         9        10        11        12
 
            Freq.     347.92    486.11    654.49    663.08    833.54    846.41                                               
 
 
                        13        14        15        16        17        18
 
            Freq.     867.28    879.19    963.55    980.21   1019.85   1025.23                                               
 
 
                        19        20        21        22        23        24
 
            Freq.    1172.27   1182.21   1235.02   1380.95   1420.89   1473.28                                               
 
 
                        25        26        27        28        29        30
 
            Freq.    1579.50   1606.71   1679.37   3140.70   3159.82   3294.44                                               
 
 
                        31        32        33
 
            Freq.    3312.83   3330.12   3338.23                                                                             
 
 
 Masses:
 =======
  12  12  12  12  12   2   1   1   1   1   1
 
 
 Frequencies:
 ============
                         1         2         3         4         5         6
 
            Freq.     i12.40    i11.30     i9.49      0.04      0.05      0.11                                               
 
 
                         7         8         9        10        11        12
 
            Freq.     316.00    484.82    655.09    662.44    831.97    857.09                                               
 
 
                        13        14        15        16        17        18
 
            Freq.     867.58    870.98    872.47    912.50    966.53   1043.31                                               
 
 
                        19        20        21        22        23        24
 
            Freq.    1108.14   1175.65   1185.34   1358.05   1404.44   1413.42                                               
 
 
                        25        26        27        28        29        30
 
            Freq.    1494.38   1631.29   1696.68   2313.86   3150.24   3305.27                                               
 
 
                        31        32        33
 
            Freq.    3315.38   3334.10   3341.26                                                                             
 
 
 Masses:
 =======
  12  12  12  12  12   3   1   1   1   1   1
 
 
 Frequencies:
 ============
                         1         2         3         4         5         6
 
            Freq.     i12.02    i11.16     i9.42      0.04      0.05      0.11                                               
 
 
                         7         8         9        10        11        12
 
            Freq.     292.63    475.57    647.31    659.68    756.45    802.52                                               
 
 
                        13        14        15        16        17        18
 
            Freq.     858.94    862.57    872.44    897.64    965.32   1042.82                                               
 
 
                        19        20        21        22        23        24
 
            Freq.    1093.63   1175.34   1184.08   1350.36   1354.47   1412.75                                               
 
 
                        25        26        27        28        29        30
 
            Freq.    1492.62   1629.55   1696.23   1966.91   3150.12   3305.27                                               
 
 
                        31        32        33
 
            Freq.    3315.37   3334.09   3341.25                                                                             
 
 
 Masses:
 =======
  12  12  12  12  12   1   1   2   1   1   1
 
 
 Frequencies:
 ============
                         1         2         3         4         5         6
 
            Freq.     i12.80    i11.22     i9.19      0.04      0.05      0.11                                               
 
 
                         7         8         9        10        11        12
 
            Freq.     345.58    483.39    532.96    663.31    809.08    834.98                                               
 
 
                        13        14        15        16        17        18
 
            Freq.     838.60    875.79    879.02    980.49   1008.35   1037.52                                               
 
 
                        19        20        21        22        23        24
 
            Freq.    1054.49   1181.43   1234.88   1352.46   1417.04   1470.12                                               
 
 
                        25        26        27        28        29        30
 
            Freq.    1578.90   1616.30   1691.11   2464.21   3140.89   3159.82                                               
 
 
                        31        32        33
 
            Freq.    3308.02   3323.91   3339.03                                                                             
 
 
 Masses:
 =======
  12  12  12  12  12   1   1   3   1   1   1
 
 
 Frequencies:
 ============
                         1         2         3         4         5         6
 
            Freq.     i12.78    i11.00     i8.88      0.04      0.05      0.11                                               
 
 
                         7         8         9        10        11        12
 
            Freq.     340.64    446.85    504.10    663.31    704.94    824.97                                               
 
 
                        13        14        15        16        17        18
 
            Freq.     827.33    868.35    875.71    980.48   1004.86   1018.06                                               
 
 
                        19        20        21        22        23        24
 
            Freq.    1046.61   1181.23   1234.84   1346.29   1412.55   1467.21                                               
 
 
                        25        26        27        28        29        30
 
            Freq.    1578.67   1599.22   1685.41   2123.80   3140.86   3159.82                                               
 
 
                        31        32        33
 
            Freq.    3308.01   3323.87   3339.02                                                                             
 
 
 Masses:
 =======
  12  12  12  12  12   1   1   1   1   2   1
 
 
 Frequencies:
 ============
                         1         2         3         4         5         6
 
            Freq.     i12.50    i11.22     i9.40      0.04      0.05      0.11                                               
 
 
                         7         8         9        10        11        12
 
            Freq.     345.73    456.35    610.20    663.62    778.31    813.02                                               
 
 
                        13        14        15        16        17        18
 
            Freq.     844.76    878.17    882.49    971.22    984.11   1023.81                                               
 
 
                        19        20        21        22        23        24
 
            Freq.    1089.41   1178.39   1233.92   1345.34   1411.09   1471.84                                               
 
 
                        25        26        27        28        29        30
 
            Freq.    1579.60   1625.89   1679.49   2463.50   3140.71   3159.82                                               
 
 
                        31        32        33
 
            Freq.    3310.95   3325.70   3337.18                                                                             
 
 
 Masses:
 =======
  12  12  12  12  12   1   1   1   1   3   1
 
 
 Frequencies:
 ============
                         1         2         3         4         5         6
 
            Freq.     i12.25    i10.99     i9.25      0.04      0.05      0.11                                               
 
 
                         7         8         9        10        11        12
 
            Freq.     340.90    423.49    585.41    663.62    713.34    758.65                                               
 
 
                        13        14        15        16        17        18
 
            Freq.     830.39    862.79    878.13    970.07    980.29   1020.18                                               
 
 
                        19        20        21        22        23        24
 
            Freq.    1072.09   1176.65   1233.67   1337.31   1408.41   1468.76                                               
 
 
                        25        26        27        28        29        30
 
            Freq.    1579.45   1611.42   1667.62   2126.19   3140.71   3159.82                                               
 
 
                        31        32        33
 
            Freq.    3310.93   3325.64   3337.16                                                                             
 
 
 
  Full substitutions:
  -----------------------
 
 Masses:
 =======
  12  12  12  12  12   2   2   2   2   2   2
 
 
 Frequencies:
 ============
                         1         2         3         4         5         6
 
            Freq.     i11.37    i10.29     i8.56      0.04      0.04      0.11                                               
 
 
                         7         8         9        10        11        12
 
            Freq.     283.44    415.67    487.08    529.86    686.25    693.31                                               
 
 
                        13        14        15        16        17        18
 
            Freq.     763.98    774.04    777.54    811.87    841.60    872.82                                               
 
 
                        19        20        21        22        23        24
 
            Freq.     892.13    911.03    990.56   1094.22   1180.75   1295.93                                               
 
 
                        25        26        27        28        29        30
 
            Freq.    1326.16   1588.91   1629.68   2288.30   2339.18   2436.26                                               
 
 
                        31        32        33
 
            Freq.    2445.50   2480.79   2492.26                                                                             
 
 
 Masses:
 =======
  12  12  12  12  12   3   3   3   3   3   3
 
 
 Frequencies:
 ============
                         1         2         3         4         5         6
 
            Freq.     i10.32     i9.43     i7.83      0.04      0.04      0.10                                               
 
 
                         7         8         9        10        11        12
 
            Freq.     245.49    363.56    409.61    455.47    604.08    639.62                                               
 
 
                        13        14        15        16        17        18
 
            Freq.     647.99    649.80    658.59    700.19    783.83    786.09                                               
 
 
                        19        20        21        22        23        24
 
            Freq.     794.36    827.14    899.15    978.14   1050.49   1252.73                                               
 
 
                        25        26        27        28        29        30
 
            Freq.    1266.44   1553.06   1573.85   1935.39   1997.31   2080.57                                               
 
 
                        31        32        33
 
            Freq.    2088.82   2153.83   2163.58                                                                             
 
 
 Masses:
 =======
  13  13  13  13  13   1   1   1   1   1   1
 
 
 Frequencies:
 ============
                         1         2         3         4         5         6
 
            Freq.     i12.46    i11.11     i9.26      0.04      0.04      0.11                                               
 
 
                         7         8         9        10        11        12
 
            Freq.     342.23    479.33    655.13    660.46    818.22    827.97                                               
 
 
                        13        14        15        16        17        18
 
            Freq.     866.73    872.51    942.70    963.57   1000.85   1014.42                                               
 
 
                        19        20        21        22        23        24
 
            Freq.    1167.37   1178.98   1231.45   1372.00   1393.18   1464.00                                               
 
 
                        25        26        27        28        29        30
 
            Freq.    1566.61   1583.65   1642.98   3134.14   3148.60   3295.33                                               
 
 
                        31        32        33
 
            Freq.    3305.18   3322.32   3328.84                                                                             
 
 
 Masses:
 =======
  14  14  14  14  14   1   1   1   1   1   1
 
 
 Frequencies:
 ============
                         1         2         3         4         5         6
 
            Freq.     i12.12    i10.80     i9.00      0.04      0.04      0.10                                               
 
 
                         7         8         9        10        11        12
 
            Freq.     335.78    466.88    647.77    658.23    791.41    800.26                                               
 
 
                        13        14        15        16        17        18
 
            Freq.     862.16    864.59    919.79    949.34    981.07    986.43                                               
 
 
                        19        20        21        22        23        24
 
            Freq.    1161.57   1171.69   1228.43   1356.88   1370.02   1439.48                                               
 
 
                        25        26        27        28        29        30
 
            Freq.    1523.63   1572.84   1594.54   3128.60   3139.03   3286.92                                               
 
 
                        31        32        33
 
            Freq.    3296.47   3312.40   3318.37                                                                             
 
 
--
 
 
      The response parameters are written to the file RESP.
--- Stop Module: mclr at Fri Dec  5 01:01:21 2025 /rc=_RC_ALL_IS_WELL_ ---
*** files: cyclo-freq.freq.molden cyclo-freq.UnSym xmldump
    saved to directory /home/charlie/input_examples/molcas/cyclo-freq
--- Module mclr spent 3 seconds ---

.##################.
.# Happy landing! #.
.##################.

    Timing: Wall=53.81 User=386.31 System=34.95
