[Molden Format]
[N_Atoms]
 11
[Atoms] (AU)
C1          1      6           0.00000000      0.00000000     -2.34830615
C2          2      6           0.00000000      2.22453831     -0.56437128
C2          3      6           0.00000000     -2.22453831     -0.56437128
C3          4      6           0.00000000      1.39516436      1.84247676
C3          5      6           0.00000000     -1.39516436      1.84247676
H1          6      1           1.65999880      0.00000000     -3.57547975
H1          7      1          -1.65999880      0.00000000     -3.57547975
H2          8      1           0.00000000      4.16158457     -1.17720961
H2          9      1           0.00000000     -4.16158457     -1.17720961
H3         10      1           0.00000000      2.55016430      3.51494584
H3         11      1           0.00000000     -2.55016430      3.51494584
[5D]
[Charge] (Mulliken)
 -0.220877646999699
 -0.763919243476433
 -0.763919243476433
 -0.742563718663005
 -0.742563718663005
 0.400284883489942
 0.400284883489942
 0.711395492603362
 0.711395492603362
 0.615680233045546
 0.615680233045546
[GTO] (AU)
   1
   s  14
  5.055750100E+04  5.526999960E-05
  7.524785600E+03  4.343299969E-04
  1.694327600E+03  2.315879983E-03
  4.728227900E+02  9.872919929E-03
  1.517107500E+02  3.521948975E-02
  5.391874600E+01  1.041937493E-01
  2.065931100E+01  2.412741083E-01
  8.383976000E+00  3.840174072E-01
  3.577015000E+00  3.082371378E-01
  1.547118000E+00  6.830553951E-02
  6.130130000E-01  7.782099944E-04
  2.460680000E-01  9.904899929E-04
  9.908700000E-02 -8.929999936E-05
  3.468000000E-02  4.713999966E-05
   s  14
  5.055750100E+04 -1.200000002E-05
  7.524785600E+03 -9.400000013E-05
  1.694327600E+03 -5.028000007E-04
  4.728227900E+02 -2.147600003E-03
  1.517107500E+02 -7.794200011E-03
  5.391874600E+01 -2.376340003E-02
  2.065931100E+01 -6.002350008E-02
  8.383976000E+00 -1.153985002E-01
  3.577015000E+00 -1.539009002E-01
  1.547118000E+00 -1.459460002E-02
  6.130130000E-01  3.895849205E-01
  2.460680000E-01  5.397290708E-01
  9.908700000E-02  1.884060103E-01
  3.468000000E-02  2.585753004E-02
   s  14
  5.055750100E+04  1.185000016E-05
  7.524785600E+03  9.271000124E-05
  1.694327600E+03  4.989300067E-04
  4.728227900E+02  2.118000028E-03
  1.517107500E+02  7.778390104E-03
  5.391874600E+01  2.363282032E-02
  2.065931100E+01  6.163057082E-02
  8.383976000E+00  1.189680216E-01
  3.577015000E+00  1.880620825E-01
  1.547118000E+00 -5.403040072E-02
  6.130130000E-01 -9.814137131E-01
  2.460680000E-01 -1.096758015E-01
  9.908700000E-02  8.847356018E-01
  3.468000000E-02  2.964983340E-01
   s  14
  5.055750100E+04 -1.559999986E-05
  7.524785600E+03 -1.139999989E-04
  1.694327600E+03 -6.730999938E-04
  4.728227900E+02 -2.532299977E-03
  1.517107500E+02 -1.090029990E-02
  5.391874600E+01 -2.778069974E-02
  2.065931100E+01 -9.587129912E-02
  8.383976000E+00 -1.247805988E-01
  3.577015000E+00 -3.932459964E-01
  1.547118000E+00  6.796003837E-01
  6.130130000E-01  1.197868989E+00
  2.460680000E-01 -1.897951982E+00
  9.908700000E-02 -4.461399959E-03
  3.468000000E-02  1.014214791E+00
   p   9
  8.333315500E+01  1.224060001E-03
  1.955761100E+01  9.438940006E-03
  6.080365000E+00  4.177441003E-02
  2.179317000E+00  1.318330401E-01
  8.651500000E-01  2.789118802E-01
  3.619440000E-01  3.668663302E-01
  1.547400000E-01  2.790591302E-01
  6.542900000E-02  1.380480701E-01
  2.290000000E-02  3.419495002E-02
   p   9
  8.333315500E+01 -1.144400003E-03
  1.955761100E+01 -8.979600020E-03
  6.080365000E+00 -3.784560008E-02
  2.179317000E+00 -1.292708003E-01
  8.651500000E-01 -3.784022008E-01
  3.619440000E-01 -2.692137006E-01
  1.547400000E-01  2.917542406E-01
  6.542900000E-02  5.436698012E-01
  2.290000000E-02  2.628308106E-01
   p   9
  8.333315500E+01  1.466939990E-03
  1.955761100E+01  1.445531991E-02
  6.080365000E+00  4.663730970E-02
  2.179317000E+00  2.366537485E-01
  8.651500000E-01  6.088734160E-01
  3.619440000E-01 -3.917792974E-01
  1.547400000E-01 -8.700228943E-01
  6.542900000E-02  4.200504573E-01
  2.290000000E-02  5.799496662E-01
   d   4
  1.900000000E+00  9.873123057E-02
  6.650000000E-01  4.529660826E-01
  2.327500000E-01  4.362457025E-01
  8.146300000E-02  2.719250216E-01
 
   2
   s  14
  5.055750100E+04  5.526999960E-05
  7.524785600E+03  4.343299969E-04
  1.694327600E+03  2.315879983E-03
  4.728227900E+02  9.872919929E-03
  1.517107500E+02  3.521948975E-02
  5.391874600E+01  1.041937493E-01
  2.065931100E+01  2.412741083E-01
  8.383976000E+00  3.840174072E-01
  3.577015000E+00  3.082371378E-01
  1.547118000E+00  6.830553951E-02
  6.130130000E-01  7.782099944E-04
  2.460680000E-01  9.904899929E-04
  9.908700000E-02 -8.929999936E-05
  3.468000000E-02  4.713999966E-05
   s  14
  5.055750100E+04 -1.200000002E-05
  7.524785600E+03 -9.400000013E-05
  1.694327600E+03 -5.028000007E-04
  4.728227900E+02 -2.147600003E-03
  1.517107500E+02 -7.794200011E-03
  5.391874600E+01 -2.376340003E-02
  2.065931100E+01 -6.002350008E-02
  8.383976000E+00 -1.153985002E-01
  3.577015000E+00 -1.539009002E-01
  1.547118000E+00 -1.459460002E-02
  6.130130000E-01  3.895849205E-01
  2.460680000E-01  5.397290708E-01
  9.908700000E-02  1.884060103E-01
  3.468000000E-02  2.585753004E-02
   s  14
  5.055750100E+04  1.185000016E-05
  7.524785600E+03  9.271000124E-05
  1.694327600E+03  4.989300067E-04
  4.728227900E+02  2.118000028E-03
  1.517107500E+02  7.778390104E-03
  5.391874600E+01  2.363282032E-02
  2.065931100E+01  6.163057082E-02
  8.383976000E+00  1.189680216E-01
  3.577015000E+00  1.880620825E-01
  1.547118000E+00 -5.403040072E-02
  6.130130000E-01 -9.814137131E-01
  2.460680000E-01 -1.096758015E-01
  9.908700000E-02  8.847356018E-01
  3.468000000E-02  2.964983340E-01
   s  14
  5.055750100E+04 -1.559999986E-05
  7.524785600E+03 -1.139999989E-04
  1.694327600E+03 -6.730999938E-04
  4.728227900E+02 -2.532299977E-03
  1.517107500E+02 -1.090029990E-02
  5.391874600E+01 -2.778069974E-02
  2.065931100E+01 -9.587129912E-02
  8.383976000E+00 -1.247805988E-01
  3.577015000E+00 -3.932459964E-01
  1.547118000E+00  6.796003837E-01
  6.130130000E-01  1.197868989E+00
  2.460680000E-01 -1.897951982E+00
  9.908700000E-02 -4.461399959E-03
  3.468000000E-02  1.014214791E+00
   p   9
  8.333315500E+01  1.224060001E-03
  1.955761100E+01  9.438940006E-03
  6.080365000E+00  4.177441003E-02
  2.179317000E+00  1.318330401E-01
  8.651500000E-01  2.789118802E-01
  3.619440000E-01  3.668663302E-01
  1.547400000E-01  2.790591302E-01
  6.542900000E-02  1.380480701E-01
  2.290000000E-02  3.419495002E-02
   p   9
  8.333315500E+01 -1.144400003E-03
  1.955761100E+01 -8.979600020E-03
  6.080365000E+00 -3.784560008E-02
  2.179317000E+00 -1.292708003E-01
  8.651500000E-01 -3.784022008E-01
  3.619440000E-01 -2.692137006E-01
  1.547400000E-01  2.917542406E-01
  6.542900000E-02  5.436698012E-01
  2.290000000E-02  2.628308106E-01
   p   9
  8.333315500E+01  1.466939990E-03
  1.955761100E+01  1.445531991E-02
  6.080365000E+00  4.663730970E-02
  2.179317000E+00  2.366537485E-01
  8.651500000E-01  6.088734160E-01
  3.619440000E-01 -3.917792974E-01
  1.547400000E-01 -8.700228943E-01
  6.542900000E-02  4.200504573E-01
  2.290000000E-02  5.799496662E-01
   d   4
  1.900000000E+00  9.873123057E-02
  6.650000000E-01  4.529660826E-01
  2.327500000E-01  4.362457025E-01
  8.146300000E-02  2.719250216E-01
 
   3
   s  14
  5.055750100E+04  5.526999960E-05
  7.524785600E+03  4.343299969E-04
  1.694327600E+03  2.315879983E-03
  4.728227900E+02  9.872919929E-03
  1.517107500E+02  3.521948975E-02
  5.391874600E+01  1.041937493E-01
  2.065931100E+01  2.412741083E-01
  8.383976000E+00  3.840174072E-01
  3.577015000E+00  3.082371378E-01
  1.547118000E+00  6.830553951E-02
  6.130130000E-01  7.782099944E-04
  2.460680000E-01  9.904899929E-04
  9.908700000E-02 -8.929999936E-05
  3.468000000E-02  4.713999966E-05
   s  14
  5.055750100E+04 -1.200000002E-05
  7.524785600E+03 -9.400000013E-05
  1.694327600E+03 -5.028000007E-04
  4.728227900E+02 -2.147600003E-03
  1.517107500E+02 -7.794200011E-03
  5.391874600E+01 -2.376340003E-02
  2.065931100E+01 -6.002350008E-02
  8.383976000E+00 -1.153985002E-01
  3.577015000E+00 -1.539009002E-01
  1.547118000E+00 -1.459460002E-02
  6.130130000E-01  3.895849205E-01
  2.460680000E-01  5.397290708E-01
  9.908700000E-02  1.884060103E-01
  3.468000000E-02  2.585753004E-02
   s  14
  5.055750100E+04  1.185000016E-05
  7.524785600E+03  9.271000124E-05
  1.694327600E+03  4.989300067E-04
  4.728227900E+02  2.118000028E-03
  1.517107500E+02  7.778390104E-03
  5.391874600E+01  2.363282032E-02
  2.065931100E+01  6.163057082E-02
  8.383976000E+00  1.189680216E-01
  3.577015000E+00  1.880620825E-01
  1.547118000E+00 -5.403040072E-02
  6.130130000E-01 -9.814137131E-01
  2.460680000E-01 -1.096758015E-01
  9.908700000E-02  8.847356018E-01
  3.468000000E-02  2.964983340E-01
   s  14
  5.055750100E+04 -1.559999986E-05
  7.524785600E+03 -1.139999989E-04
  1.694327600E+03 -6.730999938E-04
  4.728227900E+02 -2.532299977E-03
  1.517107500E+02 -1.090029990E-02
  5.391874600E+01 -2.778069974E-02
  2.065931100E+01 -9.587129912E-02
  8.383976000E+00 -1.247805988E-01
  3.577015000E+00 -3.932459964E-01
  1.547118000E+00  6.796003837E-01
  6.130130000E-01  1.197868989E+00
  2.460680000E-01 -1.897951982E+00
  9.908700000E-02 -4.461399959E-03
  3.468000000E-02  1.014214791E+00
   p   9
  8.333315500E+01  1.224060001E-03
  1.955761100E+01  9.438940006E-03
  6.080365000E+00  4.177441003E-02
  2.179317000E+00  1.318330401E-01
  8.651500000E-01  2.789118802E-01
  3.619440000E-01  3.668663302E-01
  1.547400000E-01  2.790591302E-01
  6.542900000E-02  1.380480701E-01
  2.290000000E-02  3.419495002E-02
   p   9
  8.333315500E+01 -1.144400003E-03
  1.955761100E+01 -8.979600020E-03
  6.080365000E+00 -3.784560008E-02
  2.179317000E+00 -1.292708003E-01
  8.651500000E-01 -3.784022008E-01
  3.619440000E-01 -2.692137006E-01
  1.547400000E-01  2.917542406E-01
  6.542900000E-02  5.436698012E-01
  2.290000000E-02  2.628308106E-01
   p   9
  8.333315500E+01  1.466939990E-03
  1.955761100E+01  1.445531991E-02
  6.080365000E+00  4.663730970E-02
  2.179317000E+00  2.366537485E-01
  8.651500000E-01  6.088734160E-01
  3.619440000E-01 -3.917792974E-01
  1.547400000E-01 -8.700228943E-01
  6.542900000E-02  4.200504573E-01
  2.290000000E-02  5.799496662E-01
   d   4
  1.900000000E+00  9.873123057E-02
  6.650000000E-01  4.529660826E-01
  2.327500000E-01  4.362457025E-01
  8.146300000E-02  2.719250216E-01
 
   4
   s  14
  5.055750100E+04  5.526999960E-05
  7.524785600E+03  4.343299969E-04
  1.694327600E+03  2.315879983E-03
  4.728227900E+02  9.872919929E-03
  1.517107500E+02  3.521948975E-02
  5.391874600E+01  1.041937493E-01
  2.065931100E+01  2.412741083E-01
  8.383976000E+00  3.840174072E-01
  3.577015000E+00  3.082371378E-01
  1.547118000E+00  6.830553951E-02
  6.130130000E-01  7.782099944E-04
  2.460680000E-01  9.904899929E-04
  9.908700000E-02 -8.929999936E-05
  3.468000000E-02  4.713999966E-05
   s  14
  5.055750100E+04 -1.200000002E-05
  7.524785600E+03 -9.400000013E-05
  1.694327600E+03 -5.028000007E-04
  4.728227900E+02 -2.147600003E-03
  1.517107500E+02 -7.794200011E-03
  5.391874600E+01 -2.376340003E-02
  2.065931100E+01 -6.002350008E-02
  8.383976000E+00 -1.153985002E-01
  3.577015000E+00 -1.539009002E-01
  1.547118000E+00 -1.459460002E-02
  6.130130000E-01  3.895849205E-01
  2.460680000E-01  5.397290708E-01
  9.908700000E-02  1.884060103E-01
  3.468000000E-02  2.585753004E-02
   s  14
  5.055750100E+04  1.185000016E-05
  7.524785600E+03  9.271000124E-05
  1.694327600E+03  4.989300067E-04
  4.728227900E+02  2.118000028E-03
  1.517107500E+02  7.778390104E-03
  5.391874600E+01  2.363282032E-02
  2.065931100E+01  6.163057082E-02
  8.383976000E+00  1.189680216E-01
  3.577015000E+00  1.880620825E-01
  1.547118000E+00 -5.403040072E-02
  6.130130000E-01 -9.814137131E-01
  2.460680000E-01 -1.096758015E-01
  9.908700000E-02  8.847356018E-01
  3.468000000E-02  2.964983340E-01
   s  14
  5.055750100E+04 -1.559999986E-05
  7.524785600E+03 -1.139999989E-04
  1.694327600E+03 -6.730999938E-04
  4.728227900E+02 -2.532299977E-03
  1.517107500E+02 -1.090029990E-02
  5.391874600E+01 -2.778069974E-02
  2.065931100E+01 -9.587129912E-02
  8.383976000E+00 -1.247805988E-01
  3.577015000E+00 -3.932459964E-01
  1.547118000E+00  6.796003837E-01
  6.130130000E-01  1.197868989E+00
  2.460680000E-01 -1.897951982E+00
  9.908700000E-02 -4.461399959E-03
  3.468000000E-02  1.014214791E+00
   p   9
  8.333315500E+01  1.224060001E-03
  1.955761100E+01  9.438940006E-03
  6.080365000E+00  4.177441003E-02
  2.179317000E+00  1.318330401E-01
  8.651500000E-01  2.789118802E-01
  3.619440000E-01  3.668663302E-01
  1.547400000E-01  2.790591302E-01
  6.542900000E-02  1.380480701E-01
  2.290000000E-02  3.419495002E-02
   p   9
  8.333315500E+01 -1.144400003E-03
  1.955761100E+01 -8.979600020E-03
  6.080365000E+00 -3.784560008E-02
  2.179317000E+00 -1.292708003E-01
  8.651500000E-01 -3.784022008E-01
  3.619440000E-01 -2.692137006E-01
  1.547400000E-01  2.917542406E-01
  6.542900000E-02  5.436698012E-01
  2.290000000E-02  2.628308106E-01
   p   9
  8.333315500E+01  1.466939990E-03
  1.955761100E+01  1.445531991E-02
  6.080365000E+00  4.663730970E-02
  2.179317000E+00  2.366537485E-01
  8.651500000E-01  6.088734160E-01
  3.619440000E-01 -3.917792974E-01
  1.547400000E-01 -8.700228943E-01
  6.542900000E-02  4.200504573E-01
  2.290000000E-02  5.799496662E-01
   d   4
  1.900000000E+00  9.873123057E-02
  6.650000000E-01  4.529660826E-01
  2.327500000E-01  4.362457025E-01
  8.146300000E-02  2.719250216E-01
 
   5
   s  14
  5.055750100E+04  5.526999960E-05
  7.524785600E+03  4.343299969E-04
  1.694327600E+03  2.315879983E-03
  4.728227900E+02  9.872919929E-03
  1.517107500E+02  3.521948975E-02
  5.391874600E+01  1.041937493E-01
  2.065931100E+01  2.412741083E-01
  8.383976000E+00  3.840174072E-01
  3.577015000E+00  3.082371378E-01
  1.547118000E+00  6.830553951E-02
  6.130130000E-01  7.782099944E-04
  2.460680000E-01  9.904899929E-04
  9.908700000E-02 -8.929999936E-05
  3.468000000E-02  4.713999966E-05
   s  14
  5.055750100E+04 -1.200000002E-05
  7.524785600E+03 -9.400000013E-05
  1.694327600E+03 -5.028000007E-04
  4.728227900E+02 -2.147600003E-03
  1.517107500E+02 -7.794200011E-03
  5.391874600E+01 -2.376340003E-02
  2.065931100E+01 -6.002350008E-02
  8.383976000E+00 -1.153985002E-01
  3.577015000E+00 -1.539009002E-01
  1.547118000E+00 -1.459460002E-02
  6.130130000E-01  3.895849205E-01
  2.460680000E-01  5.397290708E-01
  9.908700000E-02  1.884060103E-01
  3.468000000E-02  2.585753004E-02
   s  14
  5.055750100E+04  1.185000016E-05
  7.524785600E+03  9.271000124E-05
  1.694327600E+03  4.989300067E-04
  4.728227900E+02  2.118000028E-03
  1.517107500E+02  7.778390104E-03
  5.391874600E+01  2.363282032E-02
  2.065931100E+01  6.163057082E-02
  8.383976000E+00  1.189680216E-01
  3.577015000E+00  1.880620825E-01
  1.547118000E+00 -5.403040072E-02
  6.130130000E-01 -9.814137131E-01
  2.460680000E-01 -1.096758015E-01
  9.908700000E-02  8.847356018E-01
  3.468000000E-02  2.964983340E-01
   s  14
  5.055750100E+04 -1.559999986E-05
  7.524785600E+03 -1.139999989E-04
  1.694327600E+03 -6.730999938E-04
  4.728227900E+02 -2.532299977E-03
  1.517107500E+02 -1.090029990E-02
  5.391874600E+01 -2.778069974E-02
  2.065931100E+01 -9.587129912E-02
  8.383976000E+00 -1.247805988E-01
  3.577015000E+00 -3.932459964E-01
  1.547118000E+00  6.796003837E-01
  6.130130000E-01  1.197868989E+00
  2.460680000E-01 -1.897951982E+00
  9.908700000E-02 -4.461399959E-03
  3.468000000E-02  1.014214791E+00
   p   9
  8.333315500E+01  1.224060001E-03
  1.955761100E+01  9.438940006E-03
  6.080365000E+00  4.177441003E-02
  2.179317000E+00  1.318330401E-01
  8.651500000E-01  2.789118802E-01
  3.619440000E-01  3.668663302E-01
  1.547400000E-01  2.790591302E-01
  6.542900000E-02  1.380480701E-01
  2.290000000E-02  3.419495002E-02
   p   9
  8.333315500E+01 -1.144400003E-03
  1.955761100E+01 -8.979600020E-03
  6.080365000E+00 -3.784560008E-02
  2.179317000E+00 -1.292708003E-01
  8.651500000E-01 -3.784022008E-01
  3.619440000E-01 -2.692137006E-01
  1.547400000E-01  2.917542406E-01
  6.542900000E-02  5.436698012E-01
  2.290000000E-02  2.628308106E-01
   p   9
  8.333315500E+01  1.466939990E-03
  1.955761100E+01  1.445531991E-02
  6.080365000E+00  4.663730970E-02
  2.179317000E+00  2.366537485E-01
  8.651500000E-01  6.088734160E-01
  3.619440000E-01 -3.917792974E-01
  1.547400000E-01 -8.700228943E-01
  6.542900000E-02  4.200504573E-01
  2.290000000E-02  5.799496662E-01
   d   4
  1.900000000E+00  9.873123057E-02
  6.650000000E-01  4.529660826E-01
  2.327500000E-01  4.362457025E-01
  8.146300000E-02  2.719250216E-01
 
   6
   s   8
  1.886144500E+02  9.638500027E-04
  2.827659600E+01  7.491960021E-03
  6.424830000E+00  3.759541011E-02
  1.815041000E+00  1.433949804E-01
  5.910630000E-01  3.486363010E-01
  2.121490000E-01  4.382973612E-01
  7.989100000E-02  1.651066105E-01
  2.796200000E-02  2.102287006E-02
   s   8
  1.886144500E+02 -1.311899994E-03
  2.827659600E+01 -1.034509996E-02
  6.424830000E+00 -5.049529978E-02
  1.815041000E+00 -2.073854991E-01
  5.910630000E-01 -4.350884981E-01
  2.121490000E-01 -2.472969989E-02
  7.989100000E-02  3.225259886E-01
  2.796200000E-02  7.072753770E-01
 
   7
   s   8
  1.886144500E+02  9.638500027E-04
  2.827659600E+01  7.491960021E-03
  6.424830000E+00  3.759541011E-02
  1.815041000E+00  1.433949804E-01
  5.910630000E-01  3.486363010E-01
  2.121490000E-01  4.382973612E-01
  7.989100000E-02  1.651066105E-01
  2.796200000E-02  2.102287006E-02
   s   8
  1.886144500E+02 -1.311899994E-03
  2.827659600E+01 -1.034509996E-02
  6.424830000E+00 -5.049529978E-02
  1.815041000E+00 -2.073854991E-01
  5.910630000E-01 -4.350884981E-01
  2.121490000E-01 -2.472969989E-02
  7.989100000E-02  3.225259886E-01
  2.796200000E-02  7.072753770E-01
 
   8
   s   8
  1.886144500E+02  9.638500027E-04
  2.827659600E+01  7.491960021E-03
  6.424830000E+00  3.759541011E-02
  1.815041000E+00  1.433949804E-01
  5.910630000E-01  3.486363010E-01
  2.121490000E-01  4.382973612E-01
  7.989100000E-02  1.651066105E-01
  2.796200000E-02  2.102287006E-02
   s   8
  1.886144500E+02 -1.311899994E-03
  2.827659600E+01 -1.034509996E-02
  6.424830000E+00 -5.049529978E-02
  1.815041000E+00 -2.073854991E-01
  5.910630000E-01 -4.350884981E-01
  2.121490000E-01 -2.472969989E-02
  7.989100000E-02  3.225259886E-01
  2.796200000E-02  7.072753770E-01
 
   9
   s   8
  1.886144500E+02  9.638500027E-04
  2.827659600E+01  7.491960021E-03
  6.424830000E+00  3.759541011E-02
  1.815041000E+00  1.433949804E-01
  5.910630000E-01  3.486363010E-01
  2.121490000E-01  4.382973612E-01
  7.989100000E-02  1.651066105E-01
  2.796200000E-02  2.102287006E-02
   s   8
  1.886144500E+02 -1.311899994E-03
  2.827659600E+01 -1.034509996E-02
  6.424830000E+00 -5.049529978E-02
  1.815041000E+00 -2.073854991E-01
  5.910630000E-01 -4.350884981E-01
  2.121490000E-01 -2.472969989E-02
  7.989100000E-02  3.225259886E-01
  2.796200000E-02  7.072753770E-01
 
  10
   s   8
  1.886144500E+02  9.638500027E-04
  2.827659600E+01  7.491960021E-03
  6.424830000E+00  3.759541011E-02
  1.815041000E+00  1.433949804E-01
  5.910630000E-01  3.486363010E-01
  2.121490000E-01  4.382973612E-01
  7.989100000E-02  1.651066105E-01
  2.796200000E-02  2.102287006E-02
   s   8
  1.886144500E+02 -1.311899994E-03
  2.827659600E+01 -1.034509996E-02
  6.424830000E+00 -5.049529978E-02
  1.815041000E+00 -2.073854991E-01
  5.910630000E-01 -4.350884981E-01
  2.121490000E-01 -2.472969989E-02
  7.989100000E-02  3.225259886E-01
  2.796200000E-02  7.072753770E-01
 
  11
   s   8
  1.886144500E+02  9.638500027E-04
  2.827659600E+01  7.491960021E-03
  6.424830000E+00  3.759541011E-02
  1.815041000E+00  1.433949804E-01
  5.910630000E-01  3.486363010E-01
  2.121490000E-01  4.382973612E-01
  7.989100000E-02  1.651066105E-01
  2.796200000E-02  2.102287006E-02
   s   8
  1.886144500E+02 -1.311899994E-03
  2.827659600E+01 -1.034509996E-02
  6.424830000E+00 -5.049529978E-02
  1.815041000E+00 -2.073854991E-01
  5.910630000E-01 -4.350884981E-01
  2.121490000E-01 -2.472969989E-02
  7.989100000E-02  3.225259886E-01
  2.796200000E-02  7.072753770E-01
 
[MO]
Sym=     1a1 
Ene=   -11.2280
Spin= Alpha
Occup=    2.00000
   1         0.99898502
   2         0.00088628
   3        -0.00078057
   4         0.00139706
   5         0.00000000
   6         0.00000000
   7        -0.00055369
   8         0.00000000
   9         0.00000000
  10        -0.00027967
  11         0.00000000
  12         0.00000000
  13         0.00009364
  14         0.00005830
  15         0.00000000
  16         0.00000000
  17         0.00021961
  18         0.00000000
  19         0.02757275
  20         0.00067542
  21        -0.00006375
  22        -0.00006124
  23         0.00000000
  24        -0.00044322
  25        -0.00071266
  26         0.00000000
  27         0.00018112
  28        -0.00014175
  29         0.00000000
  30         0.00011240
  31         0.00008077
  32         0.00004193
  33         0.00000000
  34         0.00031049
  35        -0.00012974
  36         0.00000000
  37         0.02757275
  38         0.00067542
  39        -0.00006375
  40        -0.00006124
  41         0.00000000
  42         0.00044322
  43        -0.00071266
  44         0.00000000
  45        -0.00018112
  46        -0.00014175
  47         0.00000000
  48        -0.00011240
  49         0.00008077
  50         0.00004193
  51         0.00000000
  52        -0.00031049
  53        -0.00012974
  54         0.00000000
  55         0.00134474
  56         0.00020050
  57         0.00009537
  58         0.00002392
  59         0.00000000
  60        -0.00011584
  61        -0.00020896
  62         0.00000000
  63        -0.00018115
  64        -0.00019783
  65         0.00000000
  66        -0.00005533
  67        -0.00001957
  68         0.00001451
  69         0.00000000
  70        -0.00001055
  71         0.00001937
  72         0.00000000
  73         0.00134474
  74         0.00020050
  75         0.00009537
  76         0.00002392
  77         0.00000000
  78         0.00011584
  79        -0.00020896
  80         0.00000000
  81         0.00018115
  82        -0.00019783
  83         0.00000000
  84         0.00005533
  85        -0.00001957
  86         0.00001451
  87         0.00000000
  88         0.00001055
  89         0.00001937
  90         0.00000000
  91         0.00006165
  92        -0.00068398
  93         0.00006165
  94        -0.00068398
  95        -0.00011440
  96        -0.00012269
  97        -0.00011440
  98        -0.00012269
  99         0.00020813
 100         0.00017681
 101         0.00020813
 102         0.00017681
Sym=     2a1 
Ene=   -11.2190
Spin= Alpha
Occup=    2.00000
   1        -0.01149586
   2         0.00047142
   3         0.00001814
   4        -0.00008219
   5         0.00000000
   6         0.00000000
   7         0.00020868
   8         0.00000000
   9         0.00000000
  10         0.00002126
  11         0.00000000
  12         0.00000000
  13        -0.00000566
  14        -0.00002978
  15         0.00000000
  16         0.00000000
  17        -0.00000419
  18         0.00000000
  19         0.17737003
  20         0.00018933
  21        -0.00046927
  22         0.00013656
  23         0.00000000
  24        -0.00001472
  25         0.00044449
  26         0.00000000
  27         0.00010270
  28        -0.00020888
  29         0.00000000
  30        -0.00000073
  31        -0.00013351
  32         0.00026800
  33         0.00000000
  34        -0.00019280
  35         0.00011251
  36         0.00000000
  37         0.17737003
  38         0.00018933
  39        -0.00046927
  40         0.00013656
  41         0.00000000
  42         0.00001472
  43         0.00044449
  44         0.00000000
  45        -0.00010270
  46        -0.00020888
  47         0.00000000
  48         0.00000073
  49        -0.00013351
  50         0.00026800
  51         0.00000000
  52         0.00019280
  53         0.00011251
  54         0.00000000
  55         0.68434335
  56         0.00209026
  57         0.00028261
  58         0.00112911
  59         0.00000000
  60        -0.00012111
  61         0.00004746
  62         0.00000000
  63         0.00038678
  64         0.00004580
  65         0.00000000
  66         0.00003520
  67         0.00013368
  68         0.00012048
  69         0.00000000
  70        -0.00002960
  71        -0.00021061
  72         0.00000000
  73         0.68434335
  74         0.00209026
  75         0.00028261
  76         0.00112911
  77         0.00000000
  78         0.00012111
  79         0.00004746
  80         0.00000000
  81        -0.00038678
  82         0.00004580
  83         0.00000000
  84        -0.00003520
  85         0.00013368
  86         0.00012048
  87         0.00000000
  88         0.00002960
  89        -0.00021061
  90         0.00000000
  91        -0.00006898
  92        -0.00005042
  93        -0.00006898
  94        -0.00005042
  95        -0.00002508
  96        -0.00024527
  97        -0.00002508
  98        -0.00024527
  99        -0.00047189
 100        -0.00095002
 101        -0.00047189
 102        -0.00095002
Sym=     3a1 
Ene=   -11.2160
Spin= Alpha
Occup=    2.00000
   1         0.03741862
   2         0.00069975
   3         0.00102282
   4         0.00040013
   5         0.00000000
   6         0.00000000
   7        -0.00013876
   8         0.00000000
   9         0.00000000
  10         0.00033312
  11         0.00000000
  12         0.00000000
  13         0.00001155
  14         0.00007749
  15         0.00000000
  16         0.00000000
  17         0.00014902
  18         0.00000000
  19        -0.68404860
  20        -0.00265084
  21        -0.00114536
  22        -0.00138329
  23         0.00000000
  24         0.00003348
  25         0.00004325
  26         0.00000000
  27         0.00010305
  28        -0.00017878
  29         0.00000000
  30        -0.00003359
  31         0.00009664
  32        -0.00001644
  33         0.00000000
  34         0.00013184
  35         0.00022418
  36         0.00000000
  37        -0.68404860
  38        -0.00265084
  39        -0.00114536
  40        -0.00138329
  41         0.00000000
  42        -0.00003348
  43         0.00004325
  44         0.00000000
  45        -0.00010305
  46        -0.00017878
  47         0.00000000
  48         0.00003359
  49         0.00009664
  50        -0.00001644
  51         0.00000000
  52        -0.00013184
  53         0.00022418
  54         0.00000000
  55         0.17785689
  56         0.00087929
  57         0.00073316
  58         0.00049079
  59         0.00000000
  60        -0.00033376
  61         0.00030911
  62         0.00000000
  63        -0.00001270
  64        -0.00028100
  65         0.00000000
  66        -0.00001654
  67        -0.00001528
  68        -0.00012202
  69         0.00000000
  70         0.00023799
  71        -0.00015848
  72         0.00000000
  73         0.17785689
  74         0.00087929
  75         0.00073316
  76         0.00049079
  77         0.00000000
  78         0.00033376
  79         0.00030911
  80         0.00000000
  81         0.00001270
  82        -0.00028100
  83         0.00000000
  84         0.00001654
  85        -0.00001528
  86        -0.00012202
  87         0.00000000
  88        -0.00023799
  89        -0.00015848
  90         0.00000000
  91         0.00001684
  92         0.00000625
  93         0.00001684
  94         0.00000625
  95         0.00045349
  96         0.00086122
  97         0.00045349
  98         0.00086122
  99        -0.00013422
 100        -0.00016257
 101        -0.00013422
 102        -0.00016257
Sym=     4a1 
Ene=    -1.1439
Spin= Alpha
Occup=    2.00000
   1        -0.05040673
   2         0.13216887
   3        -0.14520411
   4        -0.03610273
   5         0.00000000
   6         0.00000000
   7         0.07578998
   8         0.00000000
   9         0.00000000
  10        -0.01225085
  11         0.00000000
  12         0.00000000
  13         0.00642357
  14         0.00541269
  15         0.00000000
  16         0.00000000
  17        -0.00490597
  18         0.00000000
  19        -0.03332104
  20         0.29256261
  21        -0.02031818
  22         0.00146042
  23         0.00000000
  24        -0.06613730
  25         0.02310617
  26         0.00000000
  27         0.03175895
  28        -0.00852160
  29         0.00000000
  30        -0.00399477
  31         0.01655514
  32         0.00869853
  33         0.00000000
  34        -0.00194199
  35        -0.01143297
  36         0.00000000
  37        -0.03332104
  38         0.29256261
  39        -0.02031818
  40         0.00146042
  41         0.00000000
  42         0.06613730
  43         0.02310617
  44         0.00000000
  45        -0.03175895
  46        -0.00852160
  47         0.00000000
  48         0.00399477
  49         0.01655514
  50         0.00869853
  51         0.00000000
  52         0.00194199
  53        -0.01143297
  54         0.00000000
  55        -0.03702045
  56         0.27994639
  57        -0.03560065
  58        -0.00254729
  59         0.00000000
  60        -0.05588102
  61        -0.10048299
  62         0.00000000
  63        -0.01125393
  64        -0.00233842
  65         0.00000000
  66        -0.00845615
  67        -0.00888067
  68         0.00998135
  69         0.00000000
  70        -0.00270141
  71        -0.01251507
  72         0.00000000
  73        -0.03702045
  74         0.27994639
  75        -0.03560065
  76        -0.00254729
  77         0.00000000
  78         0.05588102
  79        -0.10048299
  80         0.00000000
  81         0.01125393
  82        -0.00233842
  83         0.00000000
  84         0.00845615
  85        -0.00888067
  86         0.00998135
  87         0.00000000
  88         0.00270141
  89        -0.01251507
  90         0.00000000