[Molden Format]
[N_Atoms]
 11
[Atoms] (AU)
C1          1      6           0.00000000      0.00000000     -2.34830615
C2          2      6           0.00000000      2.22453831     -0.56437128
C2          3      6           0.00000000     -2.22453831     -0.56437128
C3          4      6           0.00000000      1.39516436      1.84247676
C3          5      6           0.00000000     -1.39516436      1.84247676
H1          6      1           1.65999880      0.00000000     -3.57547975
H1          7      1          -1.65999880      0.00000000     -3.57547975
H2          8      1           0.00000000      4.16158457     -1.17720961
H2          9      1           0.00000000     -4.16158457     -1.17720961
H3         10      1           0.00000000      2.55016430      3.51494584
H3         11      1           0.00000000     -2.55016430      3.51494584
[5D]
[Charge] (Mulliken)
 -0.208814829866368
 -0.793546300706380
 -0.793546300706380
 -0.756844970304872
 -0.756844970304872
 0.409901717272710
 0.409901717272710
 0.724523572404154
 0.724523572404154
 0.624780811200115
 0.624780811200115
[GTO] (AU)
   1
   s  14
  5.055750100E+04  5.526999960E-05
  7.524785600E+03  4.343299969E-04
  1.694327600E+03  2.315879983E-03
  4.728227900E+02  9.872919929E-03
  1.517107500E+02  3.521948975E-02
  5.391874600E+01  1.041937493E-01
  2.065931100E+01  2.412741083E-01
  8.383976000E+00  3.840174072E-01
  3.577015000E+00  3.082371378E-01
  1.547118000E+00  6.830553951E-02
  6.130130000E-01  7.782099944E-04
  2.460680000E-01  9.904899929E-04
  9.908700000E-02 -8.929999936E-05
  3.468000000E-02  4.713999966E-05
   s  14
  5.055750100E+04 -1.200000002E-05
  7.524785600E+03 -9.400000013E-05
  1.694327600E+03 -5.028000007E-04
  4.728227900E+02 -2.147600003E-03
  1.517107500E+02 -7.794200011E-03
  5.391874600E+01 -2.376340003E-02
  2.065931100E+01 -6.002350008E-02
  8.383976000E+00 -1.153985002E-01
  3.577015000E+00 -1.539009002E-01
  1.547118000E+00 -1.459460002E-02
  6.130130000E-01  3.895849205E-01
  2.460680000E-01  5.397290708E-01
  9.908700000E-02  1.884060103E-01
  3.468000000E-02  2.585753004E-02
   s  14
  5.055750100E+04  1.185000016E-05
  7.524785600E+03  9.271000124E-05
  1.694327600E+03  4.989300067E-04
  4.728227900E+02  2.118000028E-03
  1.517107500E+02  7.778390104E-03
  5.391874600E+01  2.363282032E-02
  2.065931100E+01  6.163057082E-02
  8.383976000E+00  1.189680216E-01
  3.577015000E+00  1.880620825E-01
  1.547118000E+00 -5.403040072E-02
  6.130130000E-01 -9.814137131E-01
  2.460680000E-01 -1.096758015E-01
  9.908700000E-02  8.847356018E-01
  3.468000000E-02  2.964983340E-01
   s  14
  5.055750100E+04 -1.559999986E-05
  7.524785600E+03 -1.139999989E-04
  1.694327600E+03 -6.730999938E-04
  4.728227900E+02 -2.532299977E-03
  1.517107500E+02 -1.090029990E-02
  5.391874600E+01 -2.778069974E-02
  2.065931100E+01 -9.587129912E-02
  8.383976000E+00 -1.247805988E-01
  3.577015000E+00 -3.932459964E-01
  1.547118000E+00  6.796003837E-01
  6.130130000E-01  1.197868989E+00
  2.460680000E-01 -1.897951982E+00
  9.908700000E-02 -4.461399959E-03
  3.468000000E-02  1.014214791E+00
   p   9
  8.333315500E+01  1.224060001E-03
  1.955761100E+01  9.438940006E-03
  6.080365000E+00  4.177441003E-02
  2.179317000E+00  1.318330401E-01
  8.651500000E-01  2.789118802E-01
  3.619440000E-01  3.668663302E-01
  1.547400000E-01  2.790591302E-01
  6.542900000E-02  1.380480701E-01
  2.290000000E-02  3.419495002E-02
   p   9
  8.333315500E+01 -1.144400003E-03
  1.955761100E+01 -8.979600020E-03
  6.080365000E+00 -3.784560008E-02
  2.179317000E+00 -1.292708003E-01
  8.651500000E-01 -3.784022008E-01
  3.619440000E-01 -2.692137006E-01
  1.547400000E-01  2.917542406E-01
  6.542900000E-02  5.436698012E-01
  2.290000000E-02  2.628308106E-01
   p   9
  8.333315500E+01  1.466939990E-03
  1.955761100E+01  1.445531991E-02
  6.080365000E+00  4.663730970E-02
  2.179317000E+00  2.366537485E-01
  8.651500000E-01  6.088734160E-01
  3.619440000E-01 -3.917792974E-01
  1.547400000E-01 -8.700228943E-01
  6.542900000E-02  4.200504573E-01
  2.290000000E-02  5.799496662E-01
   d   4
  1.900000000E+00  9.873123057E-02
  6.650000000E-01  4.529660826E-01
  2.327500000E-01  4.362457025E-01
  8.146300000E-02  2.719250216E-01
 
   2
   s  14
  5.055750100E+04  5.526999960E-05
  7.524785600E+03  4.343299969E-04
  1.694327600E+03  2.315879983E-03
  4.728227900E+02  9.872919929E-03
  1.517107500E+02  3.521948975E-02
  5.391874600E+01  1.041937493E-01
  2.065931100E+01  2.412741083E-01
  8.383976000E+00  3.840174072E-01
  3.577015000E+00  3.082371378E-01
  1.547118000E+00  6.830553951E-02
  6.130130000E-01  7.782099944E-04
  2.460680000E-01  9.904899929E-04
  9.908700000E-02 -8.929999936E-05
  3.468000000E-02  4.713999966E-05
   s  14
  5.055750100E+04 -1.200000002E-05
  7.524785600E+03 -9.400000013E-05
  1.694327600E+03 -5.028000007E-04
  4.728227900E+02 -2.147600003E-03
  1.517107500E+02 -7.794200011E-03
  5.391874600E+01 -2.376340003E-02
  2.065931100E+01 -6.002350008E-02
  8.383976000E+00 -1.153985002E-01
  3.577015000E+00 -1.539009002E-01
  1.547118000E+00 -1.459460002E-02
  6.130130000E-01  3.895849205E-01
  2.460680000E-01  5.397290708E-01
  9.908700000E-02  1.884060103E-01
  3.468000000E-02  2.585753004E-02
   s  14
  5.055750100E+04  1.185000016E-05
  7.524785600E+03  9.271000124E-05
  1.694327600E+03  4.989300067E-04
  4.728227900E+02  2.118000028E-03
  1.517107500E+02  7.778390104E-03
  5.391874600E+01  2.363282032E-02
  2.065931100E+01  6.163057082E-02
  8.383976000E+00  1.189680216E-01
  3.577015000E+00  1.880620825E-01
  1.547118000E+00 -5.403040072E-02
  6.130130000E-01 -9.814137131E-01
  2.460680000E-01 -1.096758015E-01
  9.908700000E-02  8.847356018E-01
  3.468000000E-02  2.964983340E-01
   s  14
  5.055750100E+04 -1.559999986E-05
  7.524785600E+03 -1.139999989E-04
  1.694327600E+03 -6.730999938E-04
  4.728227900E+02 -2.532299977E-03
  1.517107500E+02 -1.090029990E-02
  5.391874600E+01 -2.778069974E-02
  2.065931100E+01 -9.587129912E-02
  8.383976000E+00 -1.247805988E-01
  3.577015000E+00 -3.932459964E-01
  1.547118000E+00  6.796003837E-01
  6.130130000E-01  1.197868989E+00
  2.460680000E-01 -1.897951982E+00
  9.908700000E-02 -4.461399959E-03
  3.468000000E-02  1.014214791E+00
   p   9
  8.333315500E+01  1.224060001E-03
  1.955761100E+01  9.438940006E-03
  6.080365000E+00  4.177441003E-02
  2.179317000E+00  1.318330401E-01
  8.651500000E-01  2.789118802E-01
  3.619440000E-01  3.668663302E-01
  1.547400000E-01  2.790591302E-01
  6.542900000E-02  1.380480701E-01
  2.290000000E-02  3.419495002E-02
   p   9
  8.333315500E+01 -1.144400003E-03
  1.955761100E+01 -8.979600020E-03
  6.080365000E+00 -3.784560008E-02
  2.179317000E+00 -1.292708003E-01
  8.651500000E-01 -3.784022008E-01
  3.619440000E-01 -2.692137006E-01
  1.547400000E-01  2.917542406E-01
  6.542900000E-02  5.436698012E-01
  2.290000000E-02  2.628308106E-01
   p   9
  8.333315500E+01  1.466939990E-03
  1.955761100E+01  1.445531991E-02
  6.080365000E+00  4.663730970E-02
  2.179317000E+00  2.366537485E-01
  8.651500000E-01  6.088734160E-01
  3.619440000E-01 -3.917792974E-01
  1.547400000E-01 -8.700228943E-01
  6.542900000E-02  4.200504573E-01
  2.290000000E-02  5.799496662E-01
   d   4
  1.900000000E+00  9.873123057E-02
  6.650000000E-01  4.529660826E-01
  2.327500000E-01  4.362457025E-01
  8.146300000E-02  2.719250216E-01
 
   3
   s  14
  5.055750100E+04  5.526999960E-05
  7.524785600E+03  4.343299969E-04
  1.694327600E+03  2.315879983E-03
  4.728227900E+02  9.872919929E-03
  1.517107500E+02  3.521948975E-02
  5.391874600E+01  1.041937493E-01
  2.065931100E+01  2.412741083E-01
  8.383976000E+00  3.840174072E-01
  3.577015000E+00  3.082371378E-01
  1.547118000E+00  6.830553951E-02
  6.130130000E-01  7.782099944E-04
  2.460680000E-01  9.904899929E-04
  9.908700000E-02 -8.929999936E-05
  3.468000000E-02  4.713999966E-05
   s  14
  5.055750100E+04 -1.200000002E-05
  7.524785600E+03 -9.400000013E-05
  1.694327600E+03 -5.028000007E-04
  4.728227900E+02 -2.147600003E-03
  1.517107500E+02 -7.794200011E-03
  5.391874600E+01 -2.376340003E-02
  2.065931100E+01 -6.002350008E-02
  8.383976000E+00 -1.153985002E-01
  3.577015000E+00 -1.539009002E-01
  1.547118000E+00 -1.459460002E-02
  6.130130000E-01  3.895849205E-01
  2.460680000E-01  5.397290708E-01
  9.908700000E-02  1.884060103E-01
  3.468000000E-02  2.585753004E-02
   s  14
  5.055750100E+04  1.185000016E-05
  7.524785600E+03  9.271000124E-05
  1.694327600E+03  4.989300067E-04
  4.728227900E+02  2.118000028E-03
  1.517107500E+02  7.778390104E-03
  5.391874600E+01  2.363282032E-02
  2.065931100E+01  6.163057082E-02
  8.383976000E+00  1.189680216E-01
  3.577015000E+00  1.880620825E-01
  1.547118000E+00 -5.403040072E-02
  6.130130000E-01 -9.814137131E-01
  2.460680000E-01 -1.096758015E-01
  9.908700000E-02  8.847356018E-01
  3.468000000E-02  2.964983340E-01
   s  14
  5.055750100E+04 -1.559999986E-05
  7.524785600E+03 -1.139999989E-04
  1.694327600E+03 -6.730999938E-04
  4.728227900E+02 -2.532299977E-03
  1.517107500E+02 -1.090029990E-02
  5.391874600E+01 -2.778069974E-02
  2.065931100E+01 -9.587129912E-02
  8.383976000E+00 -1.247805988E-01
  3.577015000E+00 -3.932459964E-01
  1.547118000E+00  6.796003837E-01
  6.130130000E-01  1.197868989E+00
  2.460680000E-01 -1.897951982E+00
  9.908700000E-02 -4.461399959E-03
  3.468000000E-02  1.014214791E+00
   p   9
  8.333315500E+01  1.224060001E-03
  1.955761100E+01  9.438940006E-03
  6.080365000E+00  4.177441003E-02
  2.179317000E+00  1.318330401E-01
  8.651500000E-01  2.789118802E-01
  3.619440000E-01  3.668663302E-01
  1.547400000E-01  2.790591302E-01
  6.542900000E-02  1.380480701E-01
  2.290000000E-02  3.419495002E-02
   p   9
  8.333315500E+01 -1.144400003E-03
  1.955761100E+01 -8.979600020E-03
  6.080365000E+00 -3.784560008E-02
  2.179317000E+00 -1.292708003E-01
  8.651500000E-01 -3.784022008E-01
  3.619440000E-01 -2.692137006E-01
  1.547400000E-01  2.917542406E-01
  6.542900000E-02  5.436698012E-01
  2.290000000E-02  2.628308106E-01
   p   9
  8.333315500E+01  1.466939990E-03
  1.955761100E+01  1.445531991E-02
  6.080365000E+00  4.663730970E-02
  2.179317000E+00  2.366537485E-01
  8.651500000E-01  6.088734160E-01
  3.619440000E-01 -3.917792974E-01
  1.547400000E-01 -8.700228943E-01
  6.542900000E-02  4.200504573E-01
  2.290000000E-02  5.799496662E-01
   d   4
  1.900000000E+00  9.873123057E-02
  6.650000000E-01  4.529660826E-01
  2.327500000E-01  4.362457025E-01
  8.146300000E-02  2.719250216E-01
 
   4
   s  14
  5.055750100E+04  5.526999960E-05
  7.524785600E+03  4.343299969E-04
  1.694327600E+03  2.315879983E-03
  4.728227900E+02  9.872919929E-03
  1.517107500E+02  3.521948975E-02
  5.391874600E+01  1.041937493E-01
  2.065931100E+01  2.412741083E-01
  8.383976000E+00  3.840174072E-01
  3.577015000E+00  3.082371378E-01
  1.547118000E+00  6.830553951E-02
  6.130130000E-01  7.782099944E-04
  2.460680000E-01  9.904899929E-04
  9.908700000E-02 -8.929999936E-05
  3.468000000E-02  4.713999966E-05
   s  14
  5.055750100E+04 -1.200000002E-05
  7.524785600E+03 -9.400000013E-05
  1.694327600E+03 -5.028000007E-04
  4.728227900E+02 -2.147600003E-03
  1.517107500E+02 -7.794200011E-03
  5.391874600E+01 -2.376340003E-02
  2.065931100E+01 -6.002350008E-02
  8.383976000E+00 -1.153985002E-01
  3.577015000E+00 -1.539009002E-01
  1.547118000E+00 -1.459460002E-02
  6.130130000E-01  3.895849205E-01
  2.460680000E-01  5.397290708E-01
  9.908700000E-02  1.884060103E-01
  3.468000000E-02  2.585753004E-02
   s  14
  5.055750100E+04  1.185000016E-05
  7.524785600E+03  9.271000124E-05
  1.694327600E+03  4.989300067E-04
  4.728227900E+02  2.118000028E-03
  1.517107500E+02  7.778390104E-03
  5.391874600E+01  2.363282032E-02
  2.065931100E+01  6.163057082E-02
  8.383976000E+00  1.189680216E-01
  3.577015000E+00  1.880620825E-01
  1.547118000E+00 -5.403040072E-02
  6.130130000E-01 -9.814137131E-01
  2.460680000E-01 -1.096758015E-01
  9.908700000E-02  8.847356018E-01
  3.468000000E-02  2.964983340E-01
   s  14
  5.055750100E+04 -1.559999986E-05
  7.524785600E+03 -1.139999989E-04
  1.694327600E+03 -6.730999938E-04
  4.728227900E+02 -2.532299977E-03
  1.517107500E+02 -1.090029990E-02
  5.391874600E+01 -2.778069974E-02
  2.065931100E+01 -9.587129912E-02
  8.383976000E+00 -1.247805988E-01
  3.577015000E+00 -3.932459964E-01
  1.547118000E+00  6.796003837E-01
  6.130130000E-01  1.197868989E+00
  2.460680000E-01 -1.897951982E+00
  9.908700000E-02 -4.461399959E-03
  3.468000000E-02  1.014214791E+00
   p   9
  8.333315500E+01  1.224060001E-03
  1.955761100E+01  9.438940006E-03
  6.080365000E+00  4.177441003E-02
  2.179317000E+00  1.318330401E-01
  8.651500000E-01  2.789118802E-01
  3.619440000E-01  3.668663302E-01
  1.547400000E-01  2.790591302E-01
  6.542900000E-02  1.380480701E-01
  2.290000000E-02  3.419495002E-02
   p   9
  8.333315500E+01 -1.144400003E-03
  1.955761100E+01 -8.979600020E-03
  6.080365000E+00 -3.784560008E-02
  2.179317000E+00 -1.292708003E-01
  8.651500000E-01 -3.784022008E-01
  3.619440000E-01 -2.692137006E-01
  1.547400000E-01  2.917542406E-01
  6.542900000E-02  5.436698012E-01
  2.290000000E-02  2.628308106E-01
   p   9
  8.333315500E+01  1.466939990E-03
  1.955761100E+01  1.445531991E-02
  6.080365000E+00  4.663730970E-02
  2.179317000E+00  2.366537485E-01
  8.651500000E-01  6.088734160E-01
  3.619440000E-01 -3.917792974E-01
  1.547400000E-01 -8.700228943E-01
  6.542900000E-02  4.200504573E-01
  2.290000000E-02  5.799496662E-01
   d   4
  1.900000000E+00  9.873123057E-02
  6.650000000E-01  4.529660826E-01
  2.327500000E-01  4.362457025E-01
  8.146300000E-02  2.719250216E-01
 
   5
   s  14
  5.055750100E+04  5.526999960E-05
  7.524785600E+03  4.343299969E-04
  1.694327600E+03  2.315879983E-03
  4.728227900E+02  9.872919929E-03
  1.517107500E+02  3.521948975E-02
  5.391874600E+01  1.041937493E-01
  2.065931100E+01  2.412741083E-01
  8.383976000E+00  3.840174072E-01
  3.577015000E+00  3.082371378E-01
  1.547118000E+00  6.830553951E-02
  6.130130000E-01  7.782099944E-04
  2.460680000E-01  9.904899929E-04
  9.908700000E-02 -8.929999936E-05
  3.468000000E-02  4.713999966E-05
   s  14
  5.055750100E+04 -1.200000002E-05
  7.524785600E+03 -9.400000013E-05
  1.694327600E+03 -5.028000007E-04
  4.728227900E+02 -2.147600003E-03
  1.517107500E+02 -7.794200011E-03
  5.391874600E+01 -2.376340003E-02
  2.065931100E+01 -6.002350008E-02
  8.383976000E+00 -1.153985002E-01
  3.577015000E+00 -1.539009002E-01
  1.547118000E+00 -1.459460002E-02
  6.130130000E-01  3.895849205E-01
  2.460680000E-01  5.397290708E-01
  9.908700000E-02  1.884060103E-01
  3.468000000E-02  2.585753004E-02
   s  14
  5.055750100E+04  1.185000016E-05
  7.524785600E+03  9.271000124E-05
  1.694327600E+03  4.989300067E-04
  4.728227900E+02  2.118000028E-03
  1.517107500E+02  7.778390104E-03
  5.391874600E+01  2.363282032E-02
  2.065931100E+01  6.163057082E-02
  8.383976000E+00  1.189680216E-01
  3.577015000E+00  1.880620825E-01
  1.547118000E+00 -5.403040072E-02
  6.130130000E-01 -9.814137131E-01
  2.460680000E-01 -1.096758015E-01
  9.908700000E-02  8.847356018E-01
  3.468000000E-02  2.964983340E-01
   s  14
  5.055750100E+04 -1.559999986E-05
  7.524785600E+03 -1.139999989E-04
  1.694327600E+03 -6.730999938E-04
  4.728227900E+02 -2.532299977E-03
  1.517107500E+02 -1.090029990E-02
  5.391874600E+01 -2.778069974E-02
  2.065931100E+01 -9.587129912E-02
  8.383976000E+00 -1.247805988E-01
  3.577015000E+00 -3.932459964E-01
  1.547118000E+00  6.796003837E-01
  6.130130000E-01  1.197868989E+00
  2.460680000E-01 -1.897951982E+00
  9.908700000E-02 -4.461399959E-03
  3.468000000E-02  1.014214791E+00
   p   9
  8.333315500E+01  1.224060001E-03
  1.955761100E+01  9.438940006E-03
  6.080365000E+00  4.177441003E-02
  2.179317000E+00  1.318330401E-01
  8.651500000E-01  2.789118802E-01
  3.619440000E-01  3.668663302E-01
  1.547400000E-01  2.790591302E-01
  6.542900000E-02  1.380480701E-01
  2.290000000E-02  3.419495002E-02
   p   9
  8.333315500E+01 -1.144400003E-03
  1.955761100E+01 -8.979600020E-03
  6.080365000E+00 -3.784560008E-02
  2.179317000E+00 -1.292708003E-01
  8.651500000E-01 -3.784022008E-01
  3.619440000E-01 -2.692137006E-01
  1.547400000E-01  2.917542406E-01
  6.542900000E-02  5.436698012E-01
  2.290000000E-02  2.628308106E-01
   p   9
  8.333315500E+01  1.466939990E-03
  1.955761100E+01  1.445531991E-02
  6.080365000E+00  4.663730970E-02
  2.179317000E+00  2.366537485E-01
  8.651500000E-01  6.088734160E-01
  3.619440000E-01 -3.917792974E-01
  1.547400000E-01 -8.700228943E-01
  6.542900000E-02  4.200504573E-01
  2.290000000E-02  5.799496662E-01
   d   4
  1.900000000E+00  9.873123057E-02
  6.650000000E-01  4.529660826E-01
  2.327500000E-01  4.362457025E-01
  8.146300000E-02  2.719250216E-01
 
   6
   s   8
  1.886144500E+02  9.638500027E-04
  2.827659600E+01  7.491960021E-03
  6.424830000E+00  3.759541011E-02
  1.815041000E+00  1.433949804E-01
  5.910630000E-01  3.486363010E-01
  2.121490000E-01  4.382973612E-01
  7.989100000E-02  1.651066105E-01
  2.796200000E-02  2.102287006E-02
   s   8
  1.886144500E+02 -1.311899994E-03
  2.827659600E+01 -1.034509996E-02
  6.424830000E+00 -5.049529978E-02
  1.815041000E+00 -2.073854991E-01
  5.910630000E-01 -4.350884981E-01
  2.121490000E-01 -2.472969989E-02
  7.989100000E-02  3.225259886E-01
  2.796200000E-02  7.072753770E-01
 
   7
   s   8
  1.886144500E+02  9.638500027E-04
  2.827659600E+01  7.491960021E-03
  6.424830000E+00  3.759541011E-02
  1.815041000E+00  1.433949804E-01
  5.910630000E-01  3.486363010E-01
  2.121490000E-01  4.382973612E-01
  7.989100000E-02  1.651066105E-01
  2.796200000E-02  2.102287006E-02
   s   8
  1.886144500E+02 -1.311899994E-03
  2.827659600E+01 -1.034509996E-02
  6.424830000E+00 -5.049529978E-02
  1.815041000E+00 -2.073854991E-01
  5.910630000E-01 -4.350884981E-01
  2.121490000E-01 -2.472969989E-02
  7.989100000E-02  3.225259886E-01
  2.796200000E-02  7.072753770E-01
 
   8
   s   8
  1.886144500E+02  9.638500027E-04
  2.827659600E+01  7.491960021E-03
  6.424830000E+00  3.759541011E-02
  1.815041000E+00  1.433949804E-01
  5.910630000E-01  3.486363010E-01
  2.121490000E-01  4.382973612E-01
  7.989100000E-02  1.651066105E-01
  2.796200000E-02  2.102287006E-02
   s   8
  1.886144500E+02 -1.311899994E-03
  2.827659600E+01 -1.034509996E-02
  6.424830000E+00 -5.049529978E-02
  1.815041000E+00 -2.073854991E-01
  5.910630000E-01 -4.350884981E-01
  2.121490000E-01 -2.472969989E-02
  7.989100000E-02  3.225259886E-01
  2.796200000E-02  7.072753770E-01
 
   9
   s   8
  1.886144500E+02  9.638500027E-04
  2.827659600E+01  7.491960021E-03
  6.424830000E+00  3.759541011E-02
  1.815041000E+00  1.433949804E-01
  5.910630000E-01  3.486363010E-01
  2.121490000E-01  4.382973612E-01
  7.989100000E-02  1.651066105E-01
  2.796200000E-02  2.102287006E-02
   s   8
  1.886144500E+02 -1.311899994E-03
  2.827659600E+01 -1.034509996E-02
  6.424830000E+00 -5.049529978E-02
  1.815041000E+00 -2.073854991E-01
  5.910630000E-01 -4.350884981E-01
  2.121490000E-01 -2.472969989E-02
  7.989100000E-02  3.225259886E-01
  2.796200000E-02  7.072753770E-01
 
  10
   s   8
  1.886144500E+02  9.638500027E-04
  2.827659600E+01  7.491960021E-03
  6.424830000E+00  3.759541011E-02
  1.815041000E+00  1.433949804E-01
  5.910630000E-01  3.486363010E-01
  2.121490000E-01  4.382973612E-01
  7.989100000E-02  1.651066105E-01
  2.796200000E-02  2.102287006E-02
   s   8
  1.886144500E+02 -1.311899994E-03
  2.827659600E+01 -1.034509996E-02
  6.424830000E+00 -5.049529978E-02
  1.815041000E+00 -2.073854991E-01
  5.910630000E-01 -4.350884981E-01
  2.121490000E-01 -2.472969989E-02
  7.989100000E-02  3.225259886E-01
  2.796200000E-02  7.072753770E-01
 
  11
   s   8
  1.886144500E+02  9.638500027E-04
  2.827659600E+01  7.491960021E-03
  6.424830000E+00  3.759541011E-02
  1.815041000E+00  1.433949804E-01
  5.910630000E-01  3.486363010E-01
  2.121490000E-01  4.382973612E-01
  7.989100000E-02  1.651066105E-01
  2.796200000E-02  2.102287006E-02
   s   8
  1.886144500E+02 -1.311899994E-03
  2.827659600E+01 -1.034509996E-02
  6.424830000E+00 -5.049529978E-02
  1.815041000E+00 -2.073854991E-01
  5.910630000E-01 -4.350884981E-01
  2.121490000E-01 -2.472969989E-02
  7.989100000E-02  3.225259886E-01
  2.796200000E-02  7.072753770E-01
 
[MO]
Sym=     1a1 
Ene=   -11.2330
Spin= Alpha
Occup=    2.00000
   1         0.99150979
   2         0.00082659
   3        -0.00086597
   4         0.00135628
   5         0.00000000
   6         0.00000000
   7        -0.00053760
   8         0.00000000
   9         0.00000000
  10        -0.00029685
  11         0.00000000
  12         0.00000000
  13         0.00009874
  14         0.00005067
  15         0.00000000
  16         0.00000000
  17         0.00021199
  18         0.00000000
  19         0.08532462
  20         0.00087444
  21        -0.00000341
  22         0.00003645
  23         0.00000000
  24        -0.00045067
  25        -0.00069265
  26         0.00000000
  27         0.00017973
  28        -0.00014270
  29         0.00000000
  30         0.00011768
  31         0.00006436
  32         0.00006108
  33         0.00000000
  34         0.00029037
  35        -0.00014095
  36         0.00000000
  37         0.08532462
  38         0.00087444
  39        -0.00000341
  40         0.00003645
  41         0.00000000
  42         0.00045067
  43        -0.00069265
  44         0.00000000
  45        -0.00017973
  46        -0.00014270
  47         0.00000000
  48        -0.00011768
  49         0.00006436
  50         0.00006108
  51         0.00000000
  52        -0.00029037
  53        -0.00014095
  54         0.00000000
  55         0.03027133
  56         0.00025883
  57         0.00006229
  58         0.00005709
  59         0.00000000
  60        -0.00010147
  61        -0.00022744
  62         0.00000000
  63        -0.00015827
  64        -0.00017728
  65         0.00000000
  66        -0.00005320
  67        -0.00001016
  68         0.00003075
  69         0.00000000
  70        -0.00002998
  71         0.00001760
  72         0.00000000
  73         0.03027133
  74         0.00025883
  75         0.00006229
  76         0.00005709
  77         0.00000000
  78         0.00010147
  79        -0.00022744
  80         0.00000000
  81         0.00015827
  82        -0.00017728
  83         0.00000000
  84         0.00005320
  85        -0.00001016
  86         0.00003075
  87         0.00000000
  88         0.00002998
  89         0.00001760
  90         0.00000000
  91         0.00006046
  92        -0.00067731
  93         0.00006046
  94        -0.00067731
  95        -0.00014836
  96        -0.00019766
  97        -0.00014836
  98        -0.00019766
  99         0.00019163
 100         0.00013293
 101         0.00019163
 102         0.00013293
Sym=     2a1 
Ene=   -11.2310
Spin= Alpha
Occup=    2.00000
   1        -0.07584582
   2         0.00025461
   3        -0.00006072
   4        -0.00019716
   5         0.00000000
   6         0.00000000
   7         0.00022424
   8         0.00000000
   9         0.00000000
  10         0.00002878
  11         0.00000000
  12         0.00000000
  13         0.00001151
  14        -0.00004443
  15         0.00000000
  16         0.00000000
  17        -0.00001623
  18         0.00000000
  19         0.20162497
  20         0.00021194
  21        -0.00041465
  22         0.00018162
  23         0.00000000
  24        -0.00000281
  25         0.00046703
  26         0.00000000
  27         0.00008589
  28        -0.00018567
  29         0.00000000
  30         0.00000404
  31        -0.00013175
  32         0.00027425
  33         0.00000000
  34        -0.00021798
  35         0.00011126
  36         0.00000000
  37         0.20162497
  38         0.00021194
  39        -0.00041465
  40         0.00018162
  41         0.00000000
  42         0.00000281
  43         0.00046703
  44         0.00000000
  45        -0.00008589
  46        -0.00018567
  47         0.00000000
  48        -0.00000404
  49        -0.00013175
  50         0.00027425
  51         0.00000000
  52         0.00021798
  53         0.00011126
  54         0.00000000
  55         0.67549849
  56         0.00199450
  57         0.00029131
  58         0.00106652
  59         0.00000000
  60        -0.00011663
  61         0.00002480
  62         0.00000000
  63         0.00037714
  64         0.00003312
  65         0.00000000
  66         0.00001759
  67         0.00015787
  68         0.00014073
  69         0.00000000
  70        -0.00004421
  71        -0.00022506
  72         0.00000000
  73         0.67549849
  74         0.00199450
  75         0.00029131
  76         0.00106652
  77         0.00000000
  78         0.00011663
  79         0.00002480
  80         0.00000000
  81        -0.00037714
  82         0.00003312
  83         0.00000000
  84        -0.00001759
  85         0.00015787
  86         0.00014073
  87         0.00000000
  88         0.00004421
  89        -0.00022506
  90         0.00000000
  91        -0.00003252
  92         0.00003164
  93        -0.00003252
  94         0.00003164
  95        -0.00001561
  96        -0.00025502
  97        -0.00001561
  98        -0.00025502
  99        -0.00047175
 100        -0.00094320
 101        -0.00047175
 102        -0.00094320
Sym=     3a1 
Ene=   -11.2290
Spin= Alpha
Occup=    2.00000
   1         0.10324150
   2         0.00100779
   3         0.00108915
   4         0.00049676
   5         0.00000000
   6         0.00000000
   7        -0.00011200
   8         0.00000000
   9         0.00000000
  10         0.00030947
  11         0.00000000
  12         0.00000000
  13        -0.00002102
  14         0.00009156
  15         0.00000000
  16         0.00000000
  17         0.00014932
  18         0.00000000
  19        -0.67249108
  20        -0.00269239
  21        -0.00127263
  22        -0.00133263
  23         0.00000000
  24         0.00005088
  25         0.00002759
  26         0.00000000
  27         0.00013405
  28        -0.00019472
  29         0.00000000
  30        -0.00005193
  31         0.00011828
  32        -0.00001816
  33         0.00000000
  34         0.00013934
  35         0.00025953
  36         0.00000000
  37        -0.67249108
  38        -0.00269239
  39        -0.00127263
  40        -0.00133263
  41         0.00000000
  42        -0.00005088
  43         0.00002759
  44         0.00000000
  45        -0.00013405
  46        -0.00019472
  47         0.00000000
  48         0.00005193
  49         0.00011828
  50        -0.00001816
  51         0.00000000
  52        -0.00013934
  53         0.00025953
  54         0.00000000
  55         0.20676215
  56         0.00104925
  57         0.00079450
  58         0.00052269
  59         0.00000000
  60        -0.00033506
  61         0.00028134
  62         0.00000000
  63         0.00000085
  64        -0.00029122
  65         0.00000000
  66        -0.00002118
  67         0.00000784
  68        -0.00010662
  69         0.00000000
  70         0.00024352
  71        -0.00018154
  72         0.00000000
  73         0.20676215
  74         0.00104925
  75         0.00079450
  76         0.00052269
  77         0.00000000
  78         0.00033506
  79         0.00028134
  80         0.00000000
  81        -0.00000085
  82        -0.00029122
  83         0.00000000
  84         0.00002118
  85         0.00000784
  86        -0.00010662
  87         0.00000000
  88        -0.00024352
  89        -0.00018154
  90         0.00000000
  91        -0.00001201
  92        -0.00006744
  93        -0.00001201
  94        -0.00006744
  95         0.00047399
  96         0.00085946
  97         0.00047399
  98         0.00085946
  99        -0.00017941
 100        -0.00022035
 101        -0.00017941
 102        -0.00022035
Sym=     4a1 
Ene=    -1.1493
Spin= Alpha
Occup=    2.00000
   1        -0.05052201
   2         0.12935762
   3        -0.14653585
   4        -0.03639369
   5         0.00000000
   6         0.00000000
   7         0.07476387
   8         0.00000000
   9         0.00000000
  10        -0.01281137
  11         0.00000000
  12         0.00000000
  13         0.00652058
  14         0.00528014
  15         0.00000000
  16         0.00000000
  17        -0.00495534
  18         0.00000000
  19        -0.03310051
  20         0.29341210
  21        -0.01997719
  22         0.00187577
  23         0.00000000
  24        -0.06617099
  25         0.02289064
  26         0.00000000
  27         0.03175411
  28        -0.00831072
  29         0.00000000
  30        -0.00403892
  31         0.01679055
  32         0.00871708
  33         0.00000000
  34        -0.00191219
  35        -0.01132511
  36         0.00000000
  37        -0.03310051
  38         0.29341210
  39        -0.01997719
  40         0.00187577
  41         0.00000000
  42         0.06617099
  43         0.02289064
  44         0.00000000
  45        -0.03175411
  46        -0.00831072
  47         0.00000000
  48         0.00403892
  49         0.01679055
  50         0.00871708
  51         0.00000000
  52         0.00191219
  53        -0.01132511
  54         0.00000000
  55        -0.03702445
  56         0.28094341
  57        -0.03592317
  58        -0.00234710
  59         0.00000000
  60        -0.05664693
  61        -0.10051544
  62         0.00000000
  63        -0.01141441
  64        -0.00284399
  65         0.00000000
  66        -0.00860271
  67        -0.00893864
  68         0.00989649
  69         0.00000000
  70        -0.00288442
  71        -0.01254793
  72         0.00000000
  73        -0.03702445
  74         0.28094341
  75        -0.03592317
  76        -0.00234710
  77         0.00000000
  78         0.05664693
  79        -0.10051544
  80         0.00000000
  81         0.01141441
  82        -0.00284399
  83         0.00000000
  84         0.00860271
  85        -0.00893864
  86         0.00989649
  87         0.00000000
  88         0.00288442
  89        -0.01254793
  90         0.00000000