[Molden Format]
[N_Atoms]
 11
[Atoms] (AU)
C1          1      6           0.00000000      0.00000000     -2.34830615
C2          2      6           0.00000000      2.22453831     -0.56437128
C2          3      6           0.00000000     -2.22453831     -0.56437128
C3          4      6           0.00000000      1.39516436      1.84247676
C3          5      6           0.00000000     -1.39516436      1.84247676
H1          6      1           1.65999880      0.00000000     -3.57547975
H1          7      1          -1.65999880      0.00000000     -3.57547975
H2          8      1           0.00000000      4.16158457     -1.17720961
H2          9      1           0.00000000     -4.16158457     -1.17720961
H3         10      1           0.00000000      2.55016430      3.51494584
H3         11      1           0.00000000     -2.55016430      3.51494584
[5D]
[Charge] (Mulliken)
 0.00000000000000
 0.00000000000000
 0.00000000000000
 0.00000000000000
 0.00000000000000
 0.00000000000000
 0.00000000000000
 0.00000000000000
 0.00000000000000
 0.00000000000000
 0.00000000000000
[GTO] (AU)
   1
   s  14
  5.055750100E+04  5.526999960E-05
  7.524785600E+03  4.343299969E-04
  1.694327600E+03  2.315879983E-03
  4.728227900E+02  9.872919929E-03
  1.517107500E+02  3.521948975E-02
  5.391874600E+01  1.041937493E-01
  2.065931100E+01  2.412741083E-01
  8.383976000E+00  3.840174072E-01
  3.577015000E+00  3.082371378E-01
  1.547118000E+00  6.830553951E-02
  6.130130000E-01  7.782099944E-04
  2.460680000E-01  9.904899929E-04
  9.908700000E-02 -8.929999936E-05
  3.468000000E-02  4.713999966E-05
   s  14
  5.055750100E+04 -1.200000002E-05
  7.524785600E+03 -9.400000013E-05
  1.694327600E+03 -5.028000007E-04
  4.728227900E+02 -2.147600003E-03
  1.517107500E+02 -7.794200011E-03
  5.391874600E+01 -2.376340003E-02
  2.065931100E+01 -6.002350008E-02
  8.383976000E+00 -1.153985002E-01
  3.577015000E+00 -1.539009002E-01
  1.547118000E+00 -1.459460002E-02
  6.130130000E-01  3.895849205E-01
  2.460680000E-01  5.397290708E-01
  9.908700000E-02  1.884060103E-01
  3.468000000E-02  2.585753004E-02
   s  14
  5.055750100E+04  1.185000016E-05
  7.524785600E+03  9.271000124E-05
  1.694327600E+03  4.989300067E-04
  4.728227900E+02  2.118000028E-03
  1.517107500E+02  7.778390104E-03
  5.391874600E+01  2.363282032E-02
  2.065931100E+01  6.163057082E-02
  8.383976000E+00  1.189680216E-01
  3.577015000E+00  1.880620825E-01
  1.547118000E+00 -5.403040072E-02
  6.130130000E-01 -9.814137131E-01
  2.460680000E-01 -1.096758015E-01
  9.908700000E-02  8.847356018E-01
  3.468000000E-02  2.964983340E-01
   s  14
  5.055750100E+04 -1.559999986E-05
  7.524785600E+03 -1.139999989E-04
  1.694327600E+03 -6.730999938E-04
  4.728227900E+02 -2.532299977E-03
  1.517107500E+02 -1.090029990E-02
  5.391874600E+01 -2.778069974E-02
  2.065931100E+01 -9.587129912E-02
  8.383976000E+00 -1.247805988E-01
  3.577015000E+00 -3.932459964E-01
  1.547118000E+00  6.796003837E-01
  6.130130000E-01  1.197868989E+00
  2.460680000E-01 -1.897951982E+00
  9.908700000E-02 -4.461399959E-03
  3.468000000E-02  1.014214791E+00
   p   9
  8.333315500E+01  1.224060001E-03
  1.955761100E+01  9.438940006E-03
  6.080365000E+00  4.177441003E-02
  2.179317000E+00  1.318330401E-01
  8.651500000E-01  2.789118802E-01
  3.619440000E-01  3.668663302E-01
  1.547400000E-01  2.790591302E-01
  6.542900000E-02  1.380480701E-01
  2.290000000E-02  3.419495002E-02
   p   9
  8.333315500E+01 -1.144400003E-03
  1.955761100E+01 -8.979600020E-03
  6.080365000E+00 -3.784560008E-02
  2.179317000E+00 -1.292708003E-01
  8.651500000E-01 -3.784022008E-01
  3.619440000E-01 -2.692137006E-01
  1.547400000E-01  2.917542406E-01
  6.542900000E-02  5.436698012E-01
  2.290000000E-02  2.628308106E-01
   p   9
  8.333315500E+01  1.466939990E-03
  1.955761100E+01  1.445531991E-02
  6.080365000E+00  4.663730970E-02
  2.179317000E+00  2.366537485E-01
  8.651500000E-01  6.088734160E-01
  3.619440000E-01 -3.917792974E-01
  1.547400000E-01 -8.700228943E-01
  6.542900000E-02  4.200504573E-01
  2.290000000E-02  5.799496662E-01
   d   4
  1.900000000E+00  9.873123057E-02
  6.650000000E-01  4.529660826E-01
  2.327500000E-01  4.362457025E-01
  8.146300000E-02  2.719250216E-01
 
   2
   s  14
  5.055750100E+04  5.526999960E-05
  7.524785600E+03  4.343299969E-04
  1.694327600E+03  2.315879983E-03
  4.728227900E+02  9.872919929E-03
  1.517107500E+02  3.521948975E-02
  5.391874600E+01  1.041937493E-01
  2.065931100E+01  2.412741083E-01
  8.383976000E+00  3.840174072E-01
  3.577015000E+00  3.082371378E-01
  1.547118000E+00  6.830553951E-02
  6.130130000E-01  7.782099944E-04
  2.460680000E-01  9.904899929E-04
  9.908700000E-02 -8.929999936E-05
  3.468000000E-02  4.713999966E-05
   s  14
  5.055750100E+04 -1.200000002E-05
  7.524785600E+03 -9.400000013E-05
  1.694327600E+03 -5.028000007E-04
  4.728227900E+02 -2.147600003E-03
  1.517107500E+02 -7.794200011E-03
  5.391874600E+01 -2.376340003E-02
  2.065931100E+01 -6.002350008E-02
  8.383976000E+00 -1.153985002E-01
  3.577015000E+00 -1.539009002E-01
  1.547118000E+00 -1.459460002E-02
  6.130130000E-01  3.895849205E-01
  2.460680000E-01  5.397290708E-01
  9.908700000E-02  1.884060103E-01
  3.468000000E-02  2.585753004E-02
   s  14
  5.055750100E+04  1.185000016E-05
  7.524785600E+03  9.271000124E-05
  1.694327600E+03  4.989300067E-04
  4.728227900E+02  2.118000028E-03
  1.517107500E+02  7.778390104E-03
  5.391874600E+01  2.363282032E-02
  2.065931100E+01  6.163057082E-02
  8.383976000E+00  1.189680216E-01
  3.577015000E+00  1.880620825E-01
  1.547118000E+00 -5.403040072E-02
  6.130130000E-01 -9.814137131E-01
  2.460680000E-01 -1.096758015E-01
  9.908700000E-02  8.847356018E-01
  3.468000000E-02  2.964983340E-01
   s  14
  5.055750100E+04 -1.559999986E-05
  7.524785600E+03 -1.139999989E-04
  1.694327600E+03 -6.730999938E-04
  4.728227900E+02 -2.532299977E-03
  1.517107500E+02 -1.090029990E-02
  5.391874600E+01 -2.778069974E-02
  2.065931100E+01 -9.587129912E-02
  8.383976000E+00 -1.247805988E-01
  3.577015000E+00 -3.932459964E-01
  1.547118000E+00  6.796003837E-01
  6.130130000E-01  1.197868989E+00
  2.460680000E-01 -1.897951982E+00
  9.908700000E-02 -4.461399959E-03
  3.468000000E-02  1.014214791E+00
   p   9
  8.333315500E+01  1.224060001E-03
  1.955761100E+01  9.438940006E-03
  6.080365000E+00  4.177441003E-02
  2.179317000E+00  1.318330401E-01
  8.651500000E-01  2.789118802E-01
  3.619440000E-01  3.668663302E-01
  1.547400000E-01  2.790591302E-01
  6.542900000E-02  1.380480701E-01
  2.290000000E-02  3.419495002E-02
   p   9
  8.333315500E+01 -1.144400003E-03
  1.955761100E+01 -8.979600020E-03
  6.080365000E+00 -3.784560008E-02
  2.179317000E+00 -1.292708003E-01
  8.651500000E-01 -3.784022008E-01
  3.619440000E-01 -2.692137006E-01
  1.547400000E-01  2.917542406E-01
  6.542900000E-02  5.436698012E-01
  2.290000000E-02  2.628308106E-01
   p   9
  8.333315500E+01  1.466939990E-03
  1.955761100E+01  1.445531991E-02
  6.080365000E+00  4.663730970E-02
  2.179317000E+00  2.366537485E-01
  8.651500000E-01  6.088734160E-01
  3.619440000E-01 -3.917792974E-01
  1.547400000E-01 -8.700228943E-01
  6.542900000E-02  4.200504573E-01
  2.290000000E-02  5.799496662E-01
   d   4
  1.900000000E+00  9.873123057E-02
  6.650000000E-01  4.529660826E-01
  2.327500000E-01  4.362457025E-01
  8.146300000E-02  2.719250216E-01
 
   3
   s  14
  5.055750100E+04  5.526999960E-05
  7.524785600E+03  4.343299969E-04
  1.694327600E+03  2.315879983E-03
  4.728227900E+02  9.872919929E-03
  1.517107500E+02  3.521948975E-02
  5.391874600E+01  1.041937493E-01
  2.065931100E+01  2.412741083E-01
  8.383976000E+00  3.840174072E-01
  3.577015000E+00  3.082371378E-01
  1.547118000E+00  6.830553951E-02
  6.130130000E-01  7.782099944E-04
  2.460680000E-01  9.904899929E-04
  9.908700000E-02 -8.929999936E-05
  3.468000000E-02  4.713999966E-05
   s  14
  5.055750100E+04 -1.200000002E-05
  7.524785600E+03 -9.400000013E-05
  1.694327600E+03 -5.028000007E-04
  4.728227900E+02 -2.147600003E-03
  1.517107500E+02 -7.794200011E-03
  5.391874600E+01 -2.376340003E-02
  2.065931100E+01 -6.002350008E-02
  8.383976000E+00 -1.153985002E-01
  3.577015000E+00 -1.539009002E-01
  1.547118000E+00 -1.459460002E-02
  6.130130000E-01  3.895849205E-01
  2.460680000E-01  5.397290708E-01
  9.908700000E-02  1.884060103E-01
  3.468000000E-02  2.585753004E-02
   s  14
  5.055750100E+04  1.185000016E-05
  7.524785600E+03  9.271000124E-05
  1.694327600E+03  4.989300067E-04
  4.728227900E+02  2.118000028E-03
  1.517107500E+02  7.778390104E-03
  5.391874600E+01  2.363282032E-02
  2.065931100E+01  6.163057082E-02
  8.383976000E+00  1.189680216E-01
  3.577015000E+00  1.880620825E-01
  1.547118000E+00 -5.403040072E-02
  6.130130000E-01 -9.814137131E-01
  2.460680000E-01 -1.096758015E-01
  9.908700000E-02  8.847356018E-01
  3.468000000E-02  2.964983340E-01
   s  14
  5.055750100E+04 -1.559999986E-05
  7.524785600E+03 -1.139999989E-04
  1.694327600E+03 -6.730999938E-04
  4.728227900E+02 -2.532299977E-03
  1.517107500E+02 -1.090029990E-02
  5.391874600E+01 -2.778069974E-02
  2.065931100E+01 -9.587129912E-02
  8.383976000E+00 -1.247805988E-01
  3.577015000E+00 -3.932459964E-01
  1.547118000E+00  6.796003837E-01
  6.130130000E-01  1.197868989E+00
  2.460680000E-01 -1.897951982E+00
  9.908700000E-02 -4.461399959E-03
  3.468000000E-02  1.014214791E+00
   p   9
  8.333315500E+01  1.224060001E-03
  1.955761100E+01  9.438940006E-03
  6.080365000E+00  4.177441003E-02
  2.179317000E+00  1.318330401E-01
  8.651500000E-01  2.789118802E-01
  3.619440000E-01  3.668663302E-01
  1.547400000E-01  2.790591302E-01
  6.542900000E-02  1.380480701E-01
  2.290000000E-02  3.419495002E-02
   p   9
  8.333315500E+01 -1.144400003E-03
  1.955761100E+01 -8.979600020E-03
  6.080365000E+00 -3.784560008E-02
  2.179317000E+00 -1.292708003E-01
  8.651500000E-01 -3.784022008E-01
  3.619440000E-01 -2.692137006E-01
  1.547400000E-01  2.917542406E-01
  6.542900000E-02  5.436698012E-01
  2.290000000E-02  2.628308106E-01
   p   9
  8.333315500E+01  1.466939990E-03
  1.955761100E+01  1.445531991E-02
  6.080365000E+00  4.663730970E-02
  2.179317000E+00  2.366537485E-01
  8.651500000E-01  6.088734160E-01
  3.619440000E-01 -3.917792974E-01
  1.547400000E-01 -8.700228943E-01
  6.542900000E-02  4.200504573E-01
  2.290000000E-02  5.799496662E-01
   d   4
  1.900000000E+00  9.873123057E-02
  6.650000000E-01  4.529660826E-01
  2.327500000E-01  4.362457025E-01
  8.146300000E-02  2.719250216E-01
 
   4
   s  14
  5.055750100E+04  5.526999960E-05
  7.524785600E+03  4.343299969E-04
  1.694327600E+03  2.315879983E-03
  4.728227900E+02  9.872919929E-03
  1.517107500E+02  3.521948975E-02
  5.391874600E+01  1.041937493E-01
  2.065931100E+01  2.412741083E-01
  8.383976000E+00  3.840174072E-01
  3.577015000E+00  3.082371378E-01
  1.547118000E+00  6.830553951E-02
  6.130130000E-01  7.782099944E-04
  2.460680000E-01  9.904899929E-04
  9.908700000E-02 -8.929999936E-05
  3.468000000E-02  4.713999966E-05
   s  14
  5.055750100E+04 -1.200000002E-05
  7.524785600E+03 -9.400000013E-05
  1.694327600E+03 -5.028000007E-04
  4.728227900E+02 -2.147600003E-03
  1.517107500E+02 -7.794200011E-03
  5.391874600E+01 -2.376340003E-02
  2.065931100E+01 -6.002350008E-02
  8.383976000E+00 -1.153985002E-01
  3.577015000E+00 -1.539009002E-01
  1.547118000E+00 -1.459460002E-02
  6.130130000E-01  3.895849205E-01
  2.460680000E-01  5.397290708E-01
  9.908700000E-02  1.884060103E-01
  3.468000000E-02  2.585753004E-02
   s  14
  5.055750100E+04  1.185000016E-05
  7.524785600E+03  9.271000124E-05
  1.694327600E+03  4.989300067E-04
  4.728227900E+02  2.118000028E-03
  1.517107500E+02  7.778390104E-03
  5.391874600E+01  2.363282032E-02
  2.065931100E+01  6.163057082E-02
  8.383976000E+00  1.189680216E-01
  3.577015000E+00  1.880620825E-01
  1.547118000E+00 -5.403040072E-02
  6.130130000E-01 -9.814137131E-01
  2.460680000E-01 -1.096758015E-01
  9.908700000E-02  8.847356018E-01
  3.468000000E-02  2.964983340E-01
   s  14
  5.055750100E+04 -1.559999986E-05
  7.524785600E+03 -1.139999989E-04
  1.694327600E+03 -6.730999938E-04
  4.728227900E+02 -2.532299977E-03
  1.517107500E+02 -1.090029990E-02
  5.391874600E+01 -2.778069974E-02
  2.065931100E+01 -9.587129912E-02
  8.383976000E+00 -1.247805988E-01
  3.577015000E+00 -3.932459964E-01
  1.547118000E+00  6.796003837E-01
  6.130130000E-01  1.197868989E+00
  2.460680000E-01 -1.897951982E+00
  9.908700000E-02 -4.461399959E-03
  3.468000000E-02  1.014214791E+00
   p   9
  8.333315500E+01  1.224060001E-03
  1.955761100E+01  9.438940006E-03
  6.080365000E+00  4.177441003E-02
  2.179317000E+00  1.318330401E-01
  8.651500000E-01  2.789118802E-01
  3.619440000E-01  3.668663302E-01
  1.547400000E-01  2.790591302E-01
  6.542900000E-02  1.380480701E-01
  2.290000000E-02  3.419495002E-02
   p   9
  8.333315500E+01 -1.144400003E-03
  1.955761100E+01 -8.979600020E-03
  6.080365000E+00 -3.784560008E-02
  2.179317000E+00 -1.292708003E-01
  8.651500000E-01 -3.784022008E-01
  3.619440000E-01 -2.692137006E-01
  1.547400000E-01  2.917542406E-01
  6.542900000E-02  5.436698012E-01
  2.290000000E-02  2.628308106E-01
   p   9
  8.333315500E+01  1.466939990E-03
  1.955761100E+01  1.445531991E-02
  6.080365000E+00  4.663730970E-02
  2.179317000E+00  2.366537485E-01
  8.651500000E-01  6.088734160E-01
  3.619440000E-01 -3.917792974E-01
  1.547400000E-01 -8.700228943E-01
  6.542900000E-02  4.200504573E-01
  2.290000000E-02  5.799496662E-01
   d   4
  1.900000000E+00  9.873123057E-02
  6.650000000E-01  4.529660826E-01
  2.327500000E-01  4.362457025E-01
  8.146300000E-02  2.719250216E-01
 
   5
   s  14
  5.055750100E+04  5.526999960E-05
  7.524785600E+03  4.343299969E-04
  1.694327600E+03  2.315879983E-03
  4.728227900E+02  9.872919929E-03
  1.517107500E+02  3.521948975E-02
  5.391874600E+01  1.041937493E-01
  2.065931100E+01  2.412741083E-01
  8.383976000E+00  3.840174072E-01
  3.577015000E+00  3.082371378E-01
  1.547118000E+00  6.830553951E-02
  6.130130000E-01  7.782099944E-04
  2.460680000E-01  9.904899929E-04
  9.908700000E-02 -8.929999936E-05
  3.468000000E-02  4.713999966E-05
   s  14
  5.055750100E+04 -1.200000002E-05
  7.524785600E+03 -9.400000013E-05
  1.694327600E+03 -5.028000007E-04
  4.728227900E+02 -2.147600003E-03
  1.517107500E+02 -7.794200011E-03
  5.391874600E+01 -2.376340003E-02
  2.065931100E+01 -6.002350008E-02
  8.383976000E+00 -1.153985002E-01
  3.577015000E+00 -1.539009002E-01
  1.547118000E+00 -1.459460002E-02
  6.130130000E-01  3.895849205E-01
  2.460680000E-01  5.397290708E-01
  9.908700000E-02  1.884060103E-01
  3.468000000E-02  2.585753004E-02
   s  14
  5.055750100E+04  1.185000016E-05
  7.524785600E+03  9.271000124E-05
  1.694327600E+03  4.989300067E-04
  4.728227900E+02  2.118000028E-03
  1.517107500E+02  7.778390104E-03
  5.391874600E+01  2.363282032E-02
  2.065931100E+01  6.163057082E-02
  8.383976000E+00  1.189680216E-01
  3.577015000E+00  1.880620825E-01
  1.547118000E+00 -5.403040072E-02
  6.130130000E-01 -9.814137131E-01
  2.460680000E-01 -1.096758015E-01
  9.908700000E-02  8.847356018E-01
  3.468000000E-02  2.964983340E-01
   s  14
  5.055750100E+04 -1.559999986E-05
  7.524785600E+03 -1.139999989E-04
  1.694327600E+03 -6.730999938E-04
  4.728227900E+02 -2.532299977E-03
  1.517107500E+02 -1.090029990E-02
  5.391874600E+01 -2.778069974E-02
  2.065931100E+01 -9.587129912E-02
  8.383976000E+00 -1.247805988E-01
  3.577015000E+00 -3.932459964E-01
  1.547118000E+00  6.796003837E-01
  6.130130000E-01  1.197868989E+00
  2.460680000E-01 -1.897951982E+00
  9.908700000E-02 -4.461399959E-03
  3.468000000E-02  1.014214791E+00
   p   9
  8.333315500E+01  1.224060001E-03
  1.955761100E+01  9.438940006E-03
  6.080365000E+00  4.177441003E-02
  2.179317000E+00  1.318330401E-01
  8.651500000E-01  2.789118802E-01
  3.619440000E-01  3.668663302E-01
  1.547400000E-01  2.790591302E-01
  6.542900000E-02  1.380480701E-01
  2.290000000E-02  3.419495002E-02
   p   9
  8.333315500E+01 -1.144400003E-03
  1.955761100E+01 -8.979600020E-03
  6.080365000E+00 -3.784560008E-02
  2.179317000E+00 -1.292708003E-01
  8.651500000E-01 -3.784022008E-01
  3.619440000E-01 -2.692137006E-01
  1.547400000E-01  2.917542406E-01
  6.542900000E-02  5.436698012E-01
  2.290000000E-02  2.628308106E-01
   p   9
  8.333315500E+01  1.466939990E-03
  1.955761100E+01  1.445531991E-02
  6.080365000E+00  4.663730970E-02
  2.179317000E+00  2.366537485E-01
  8.651500000E-01  6.088734160E-01
  3.619440000E-01 -3.917792974E-01
  1.547400000E-01 -8.700228943E-01
  6.542900000E-02  4.200504573E-01
  2.290000000E-02  5.799496662E-01
   d   4
  1.900000000E+00  9.873123057E-02
  6.650000000E-01  4.529660826E-01
  2.327500000E-01  4.362457025E-01
  8.146300000E-02  2.719250216E-01
 
   6
   s   8
  1.886144500E+02  9.638500027E-04
  2.827659600E+01  7.491960021E-03
  6.424830000E+00  3.759541011E-02
  1.815041000E+00  1.433949804E-01
  5.910630000E-01  3.486363010E-01
  2.121490000E-01  4.382973612E-01
  7.989100000E-02  1.651066105E-01
  2.796200000E-02  2.102287006E-02
   s   8
  1.886144500E+02 -1.311899994E-03
  2.827659600E+01 -1.034509996E-02
  6.424830000E+00 -5.049529978E-02
  1.815041000E+00 -2.073854991E-01
  5.910630000E-01 -4.350884981E-01
  2.121490000E-01 -2.472969989E-02
  7.989100000E-02  3.225259886E-01
  2.796200000E-02  7.072753770E-01
 
   7
   s   8
  1.886144500E+02  9.638500027E-04
  2.827659600E+01  7.491960021E-03
  6.424830000E+00  3.759541011E-02
  1.815041000E+00  1.433949804E-01
  5.910630000E-01  3.486363010E-01
  2.121490000E-01  4.382973612E-01
  7.989100000E-02  1.651066105E-01
  2.796200000E-02  2.102287006E-02
   s   8
  1.886144500E+02 -1.311899994E-03
  2.827659600E+01 -1.034509996E-02
  6.424830000E+00 -5.049529978E-02
  1.815041000E+00 -2.073854991E-01
  5.910630000E-01 -4.350884981E-01
  2.121490000E-01 -2.472969989E-02
  7.989100000E-02  3.225259886E-01
  2.796200000E-02  7.072753770E-01
 
   8
   s   8
  1.886144500E+02  9.638500027E-04
  2.827659600E+01  7.491960021E-03
  6.424830000E+00  3.759541011E-02
  1.815041000E+00  1.433949804E-01
  5.910630000E-01  3.486363010E-01
  2.121490000E-01  4.382973612E-01
  7.989100000E-02  1.651066105E-01
  2.796200000E-02  2.102287006E-02
   s   8
  1.886144500E+02 -1.311899994E-03
  2.827659600E+01 -1.034509996E-02
  6.424830000E+00 -5.049529978E-02
  1.815041000E+00 -2.073854991E-01
  5.910630000E-01 -4.350884981E-01
  2.121490000E-01 -2.472969989E-02
  7.989100000E-02  3.225259886E-01
  2.796200000E-02  7.072753770E-01
 
   9
   s   8
  1.886144500E+02  9.638500027E-04
  2.827659600E+01  7.491960021E-03
  6.424830000E+00  3.759541011E-02
  1.815041000E+00  1.433949804E-01
  5.910630000E-01  3.486363010E-01
  2.121490000E-01  4.382973612E-01
  7.989100000E-02  1.651066105E-01
  2.796200000E-02  2.102287006E-02
   s   8
  1.886144500E+02 -1.311899994E-03
  2.827659600E+01 -1.034509996E-02
  6.424830000E+00 -5.049529978E-02
  1.815041000E+00 -2.073854991E-01
  5.910630000E-01 -4.350884981E-01
  2.121490000E-01 -2.472969989E-02
  7.989100000E-02  3.225259886E-01
  2.796200000E-02  7.072753770E-01
 
  10
   s   8
  1.886144500E+02  9.638500027E-04
  2.827659600E+01  7.491960021E-03
  6.424830000E+00  3.759541011E-02
  1.815041000E+00  1.433949804E-01
  5.910630000E-01  3.486363010E-01
  2.121490000E-01  4.382973612E-01
  7.989100000E-02  1.651066105E-01
  2.796200000E-02  2.102287006E-02
   s   8
  1.886144500E+02 -1.311899994E-03
  2.827659600E+01 -1.034509996E-02
  6.424830000E+00 -5.049529978E-02
  1.815041000E+00 -2.073854991E-01
  5.910630000E-01 -4.350884981E-01
  2.121490000E-01 -2.472969989E-02
  7.989100000E-02  3.225259886E-01
  2.796200000E-02  7.072753770E-01
 
  11
   s   8
  1.886144500E+02  9.638500027E-04
  2.827659600E+01  7.491960021E-03
  6.424830000E+00  3.759541011E-02
  1.815041000E+00  1.433949804E-01
  5.910630000E-01  3.486363010E-01
  2.121490000E-01  4.382973612E-01
  7.989100000E-02  1.651066105E-01
  2.796200000E-02  2.102287006E-02
   s   8
  1.886144500E+02 -1.311899994E-03
  2.827659600E+01 -1.034509996E-02
  6.424830000E+00 -5.049529978E-02
  1.815041000E+00 -2.073854991E-01
  5.910630000E-01 -4.350884981E-01
  2.121490000E-01 -2.472969989E-02
  7.989100000E-02  3.225259886E-01
  2.796200000E-02  7.072753770E-01
 
[MO]
Sym=     1a1 
Ene=   -11.3530
Spin= Alpha
Occup=    2.00000
   1         0.41679832
   2         0.00308456
   3         0.00000000
   4         0.00000000
   5         0.00000000
   6         0.00000000
   7         0.00253539
   8         0.00000000
   9         0.00000000
  10         0.00000000
  11         0.00000000
  12         0.00000000
  13        -0.00000000
  14         0.00000000
  15         0.00000000
  16         0.00000000
  17        -0.00000000
  18         0.00000000
  19         0.44809875
  20         0.00348329
  21        -0.00000000
  22        -0.00000000
  23         0.00000000
  24        -0.00239214
  25         0.00114441
  26         0.00000000
  27         0.00000000
  28        -0.00000000
  29         0.00000000
  30        -0.00000000
  31         0.00000000
  32        -0.00000000
  33         0.00000000
  34        -0.00000000
  35         0.00000000
  36         0.00000000
  37         0.44809875
  38         0.00348329
  39        -0.00000000
  40        -0.00000000
  41         0.00000000
  42         0.00239214
  43         0.00114441
  44         0.00000000
  45        -0.00000000
  46        -0.00000000
  47         0.00000000
  48         0.00000000
  49         0.00000000
  50        -0.00000000
  51         0.00000000
  52         0.00000000
  53         0.00000000
  54         0.00000000
  55         0.45814791
  56         0.00361340
  57         0.00000000
  58         0.00000000
  59         0.00000000
  60        -0.00140075
  61        -0.00230075
  62         0.00000000
  63        -0.00000000
  64        -0.00000000
  65         0.00000000
  66        -0.00000000
  67         0.00000000
  68         0.00000000
  69         0.00000000
  70        -0.00000000
  71        -0.00000000
  72         0.00000000
  73         0.45814791
  74         0.00361340
  75         0.00000000
  76         0.00000000
  77         0.00000000
  78         0.00140075
  79        -0.00230075
  80         0.00000000
  81         0.00000000
  82        -0.00000000
  83         0.00000000
  84         0.00000000
  85         0.00000000
  86         0.00000000
  87         0.00000000
  88         0.00000000
  89        -0.00000000
  90         0.00000000
  91         0.00207611
  92        -0.00000000
  93         0.00207611
  94        -0.00000000
  95         0.00211799
  96         0.00000000
  97         0.00211799
  98         0.00000000
  99         0.00216697
 100         0.00000000
 101         0.00216697
 102         0.00000000
Sym=     2a1 
Ene=   -11.3390
Spin= Alpha
Occup=    2.00000
   1        -0.69573125
   2        -0.00075442
   3        -0.00000000
   4        -0.00000000
   5         0.00000000
   6         0.00000000
   7         0.00021898
   8         0.00000000
   9         0.00000000
  10        -0.00000000
  11         0.00000000
  12         0.00000000
  13         0.00000000
  14        -0.00000000
  15         0.00000000
  16         0.00000000
  17         0.00000000
  18         0.00000000
  19        -0.16589749
  20        -0.00000589
  21         0.00000000
  22         0.00000000
  23         0.00000000
  24         0.00079026
  25         0.00328284
  26         0.00000000
  27        -0.00000000
  28        -0.00000000
  29         0.00000000
  30         0.00000000
  31         0.00000000
  32         0.00000000
  33         0.00000000
  34         0.00000000
  35        -0.00000000
  36         0.00000000
  37        -0.16589749
  38        -0.00000589
  39         0.00000000
  40         0.00000000
  41         0.00000000
  42        -0.00079026
  43         0.00328284
  44         0.00000000
  45         0.00000000
  46        -0.00000000
  47         0.00000000
  48        -0.00000000
  49         0.00000000
  50         0.00000000
  51         0.00000000
  52        -0.00000000
  53        -0.00000000
  54         0.00000000
  55         0.47877574
  56         0.00052124
  57        -0.00000000
  58        -0.00000000
  59         0.00000000
  60        -0.00136249
  61         0.00128530
  62         0.00000000
  63         0.00000000
  64         0.00000000
  65         0.00000000
  66         0.00000000
  67        -0.00000000
  68        -0.00000000
  69         0.00000000
  70        -0.00000000
  71        -0.00000000
  72         0.00000000
  73         0.47877574
  74         0.00052124
  75        -0.00000000
  76        -0.00000000
  77         0.00000000
  78         0.00136249
  79         0.00128530
  80         0.00000000
  81        -0.00000000
  82         0.00000000
  83         0.00000000
  84        -0.00000000
  85        -0.00000000
  86        -0.00000000
  87         0.00000000
  88         0.00000000
  89        -0.00000000
  90         0.00000000
  91        -0.00257235
  92         0.00000000
  93        -0.00257235
  94         0.00000000
  95        -0.00064264
  96         0.00000000
  97        -0.00064264
  98         0.00000000
  99         0.00183569
 100        -0.00000000
 101         0.00183569
 102        -0.00000000
Sym=     3a1 
Ene=   -11.3330
Spin= Alpha
Occup=    2.00000
   1         0.58281953
   2        -0.00207824
   3         0.00000000
   4         0.00000000
   5         0.00000000
   6         0.00000000
   7        -0.00151277
   8         0.00000000
   9         0.00000000
  10         0.00000000
  11         0.00000000
  12         0.00000000
  13        -0.00000000
  14         0.00000000
  15         0.00000000
  16         0.00000000
  17        -0.00000000
  18         0.00000000
  19        -0.51983409
  20         0.00195147
  21        -0.00000000
  22        -0.00000000
  23         0.00000000
  24        -0.00139022
  25        -0.00009512
  26         0.00000000
  27         0.00000000
  28         0.00000000
  29         0.00000000
  30        -0.00000000
  31        -0.00000000
  32         0.00000000
  33         0.00000000
  34        -0.00000000
  35         0.00000000
  36         0.00000000
  37        -0.51983409
  38         0.00195147
  39        -0.00000000
  40        -0.00000000
  41         0.00000000
  42         0.00139022
  43        -0.00009512
  44         0.00000000
  45        -0.00000000
  46         0.00000000
  47         0.00000000
  48         0.00000000
  49        -0.00000000
  50         0.00000000
  51         0.00000000
  52         0.00000000
  53         0.00000000
  54         0.00000000
  55         0.24329567
  56        -0.00102430
  57        -0.00000000
  58        -0.00000000
  59         0.00000000
  60        -0.00117043
  61         0.00164880
  62         0.00000000
  63        -0.00000000
  64        -0.00000000
  65         0.00000000
  66        -0.00000000
  67        -0.00000000
  68        -0.00000000
  69         0.00000000
  70         0.00000000
  71         0.00000000
  72         0.00000000
  73         0.24329567
  74        -0.00102430
  75        -0.00000000
  76        -0.00000000
  77         0.00000000
  78         0.00117043
  79         0.00164880
  80         0.00000000
  81         0.00000000
  82        -0.00000000
  83         0.00000000
  84         0.00000000
  85        -0.00000000
  86        -0.00000000
  87         0.00000000
  88        -0.00000000
  89         0.00000000
  90         0.00000000
  91         0.00160274
  92         0.00000000
  93         0.00160274
  94         0.00000000
  95        -0.00156149
  96        -0.00000000
  97        -0.00156149
  98        -0.00000000
  99         0.00073620
 100         0.00000000
 101         0.00073620
 102         0.00000000
Sym=     4a1 
Ene=    -1.9259
Spin= Alpha
Occup=    2.00000
   1        -0.05496717
   2         0.24693571
   3        -0.00000000
   4        -0.00000000
   5         0.00000000
   6         0.00000000
   7         0.07183416
   8         0.00000000
   9         0.00000000
  10        -0.00000000
  11         0.00000000
  12         0.00000000
  13         0.00000000
  14        -0.00000000
  15         0.00000000
  16         0.00000000
  17         0.00000000
  18         0.00000000
  19        -0.05074966
  20         0.23094562
  21         0.00000000
  22         0.00000000
  23         0.00000000
  24        -0.08027389
  25         0.01305686
  26         0.00000000
  27        -0.00000000
  28         0.00000000
  29         0.00000000
  30         0.00000000
  31        -0.00000000
  32         0.00000000
  33         0.00000000
  34         0.00000000
  35        -0.00000000
  36         0.00000000
  37        -0.05074966
  38         0.23094562
  39         0.00000000
  40         0.00000000
  41         0.00000000
  42         0.08027389
  43         0.01305686
  44         0.00000000
  45         0.00000000
  46         0.00000000
  47         0.00000000
  48        -0.00000000
  49        -0.00000000
  50         0.00000000
  51         0.00000000
  52        -0.00000000
  53        -0.00000000
  54         0.00000000
  55        -0.04813011
  56         0.21821030
  57        -0.00000000
  58        -0.00000000
  59         0.00000000
  60        -0.04662014
  61        -0.06961491
  62         0.00000000
  63        -0.00000000
  64         0.00000000
  65         0.00000000
  66         0.00000000
  67        -0.00000000
  68        -0.00000000
  69         0.00000000
  70         0.00000000
  71         0.00000000
  72         0.00000000
  73        -0.04813011
  74         0.21821030
  75        -0.00000000
  76        -0.00000000
  77         0.00000000
  78         0.04662014
  79        -0.06961491
  80         0.00000000
  81         0.00000000
  82         0.00000000
  83         0.00000000
  84        -0.00000000
  85        -0.00000000
  86        -0.00000000
  87         0.00000000
  88        -0.00000000
  89         0.00000000
  90         0.00000000
  91         0.09285327