 argument  1 = fe_atom_scf.nw
 


============================== echo of input deck ==============================
start fe_atom_scf

title "fe_atom_scf: scf energy"

echo

geometry units angstroms
  Fe  0.00000000  0.00000000  0.00000000
end

basis "ao basis" spherical
Fe    S
  61132.6200000              1.766111E-03
   9179.3420000              1.353038E-02
   2090.8570000              6.673128E-02
    589.2479000              2.314823E-01
    188.7543000              4.797058E-01
     64.4462900              3.501976E-01
Fe    SP
   1259.9800000              2.438014E-03           4.028019E-03
    299.8761000              3.224048E-02           3.144647E-02
     96.8491700              1.265724E-01           1.368317E-01
     36.3102000             -3.139902E-02           3.487236E-01
     14.7299600             -6.207593E-01           4.617931E-01
      6.0660750             -4.502914E-01           2.043058E-01
Fe    SP
     50.4348500             -3.873256E-03          -7.017128E-03
     16.8392900              7.196598E-02          -2.877660E-02
      7.1920860              2.556591E-01           6.181383E-02
      3.0534200             -2.882837E-01           3.954946E-01
      1.2736430             -7.342822E-01           4.989059E-01
      0.5040910             -2.049353E-01           1.791251E-01
Fe    SP
      1.9503160              0.05694869            -0.4593796
      0.7367210              0.2882915              0.2852139
      0.1141770             -1.1381590              0.9076485
Fe    SP
      0.0411480              1.000000E+00           1.00000000
Fe    D
     23.1499400              8.876935E-02
      6.1223680              3.896319E-01
      1.8466010              7.014816E-01
Fe    D
      0.5043610              1.0000000
Fe    F
      0.8000000              1.0000000
end

charge 0

scf
  rohf
  nopen 4
  vectors output fe_atom_scf.movecs
end

task scf energy
================================================================================


                                         
                                         
 
 
             Northwest Computational Chemistry Package (NWChem) 7.2.3
             --------------------------------------------------------
 
 
                    Environmental Molecular Sciences Laboratory
                       Pacific Northwest National Laboratory
                                Richland, WA 99352
 
                              Copyright (c) 1994-2022
                       Pacific Northwest National Laboratory
                            Battelle Memorial Institute
 
             NWChem is an open-source computational chemistry package
                        distributed under the terms of the
                      Educational Community License (ECL) 2.0
             A copy of the license is included with this distribution
                              in the LICENSE.TXT file
 
                                  ACKNOWLEDGMENT
                                  --------------

            This software and its documentation were developed at the
            EMSL at Pacific Northwest National Laboratory, a multiprogram
            national laboratory, operated for the U.S. Department of Energy
            by Battelle under Contract Number DE-AC05-76RL01830. Support
            for this work was provided by the Department of Energy Office
            of Biological and Environmental Research, Office of Basic
            Energy Sciences, and the Office of Advanced Scientific Computing.


           Job information
           ---------------

    hostname        = c07d35766478
    program         = nwchem
    date            = Sat Apr 11 17:38:35 2026

    compiled        = Sun_Apr_05_01:22:06_2026
    source          = /apps/nwchem-7.2.3-release
    nwchem branch   = 7.2.3
    nwchem revision = N/A
    ga revision     = 5.8.0
    use scalapack   = T
    input           = fe_atom_scf.nw
    prefix          = fe_atom_scf.
    data base       = ./fe_atom_scf.db
    status          = startup
    nproc           =        1
    time left       =     -1s



           Memory information
           ------------------

    heap     =     26214398 doubles =      200.0 Mbytes
    stack    =     26214395 doubles =      200.0 Mbytes
    global   =     52428800 doubles =      400.0 Mbytes (distinct from heap & stack)
    total    =    104857593 doubles =      800.0 Mbytes
    verify   = yes
    hardfail = no 


           Directory information
           ---------------------
 
  0 permanent = .
  0 scratch   = .
 
 
 
 
                                NWChem Input Module
                                -------------------
 
 
                              fe_atom_scf: scf energy
                              -----------------------

 Scaling coordinates for geometry "geometry" by  1.889725989
 (inverse scale =  0.529177249)

 
 
                             Geometry "geometry" -> ""
                             -------------------------
 
 Output coordinates in angstroms (scale by  1.889725989 to convert to a.u.)
 
  No.       Tag          Charge          X              Y              Z
 ---- ---------------- ---------- -------------- -------------- --------------
    1 Fe                  26.0000     0.00000000     0.00000000     0.00000000
 
      Atomic Mass 
      ----------- 
 
      Fe                55.934900
 

 Effective nuclear repulsion energy (a.u.)       0.0000000000

            Nuclear Dipole moment (a.u.) 
            ----------------------------
        X                 Y               Z
 ---------------- ---------------- ----------------
     0.0000000000     0.0000000000     0.0000000000
 
 
            XYZ format geometry
            -------------------
     1
 geometry
 Fe                    0.00000000     0.00000000     0.00000000
 
  warning:::::::::::::: from_environment
  NWCHEM_BASIS_LIBRARY set to: </basislib>
  but file does not exist !
  using .nwchemrc or compiled library
  warning:::::::::::::: from_compile
  NWCHEM_BASIS_LIBRARY is: </apps/nwchem-7.2.3-release/src/basis/libraries/>
  but file does not exist or you do not have access to it !
                      Basis "ao basis" -> "" (spherical)
                      -----
  Fe (Iron)
  ---------
            Exponent  Coefficients 
       -------------- ---------------------------------------------------------
  1 S  6.11326200E+04  0.001766
  1 S  9.17934200E+03  0.013530
  1 S  2.09085700E+03  0.066731
  1 S  5.89247900E+02  0.231482
  1 S  1.88754300E+02  0.479706
  1 S  6.44462900E+01  0.350198
 
  2 S  1.25998000E+03  0.002438
  2 S  2.99876100E+02  0.032240
  2 S  9.68491700E+01  0.126572
  2 S  3.63102000E+01 -0.031399
  2 S  1.47299600E+01 -0.620759
  2 S  6.06607500E+00 -0.450291
 
  3 P  1.25998000E+03  0.004028
  3 P  2.99876100E+02  0.031446
  3 P  9.68491700E+01  0.136832
  3 P  3.63102000E+01  0.348724
  3 P  1.47299600E+01  0.461793
  3 P  6.06607500E+00  0.204306
 
  4 S  5.04348500E+01 -0.003873
  4 S  1.68392900E+01  0.071966
  4 S  7.19208600E+00  0.255659
  4 S  3.05342000E+00 -0.288284
  4 S  1.27364300E+00 -0.734282
  4 S  5.04091000E-01 -0.204935
 
  5 P  5.04348500E+01 -0.007017
  5 P  1.68392900E+01 -0.028777
  5 P  7.19208600E+00  0.061814
  5 P  3.05342000E+00  0.395495
  5 P  1.27364300E+00  0.498906
  5 P  5.04091000E-01  0.179125
 
  6 S  1.95031600E+00  0.056949
  6 S  7.36721000E-01  0.288291
  6 S  1.14177000E-01 -1.138159
 
  7 P  1.95031600E+00 -0.459380
  7 P  7.36721000E-01  0.285214
  7 P  1.14177000E-01  0.907648
 
  8 S  4.11480000E-02  1.000000
 
  9 P  4.11480000E-02  1.000000
 
 10 D  2.31499400E+01  0.088769
 10 D  6.12236800E+00  0.389632
 10 D  1.84660100E+00  0.701482
 
 11 D  5.04361000E-01  1.000000
 
 12 F  8.00000000E-01  1.000000
 


 Summary of "ao basis" -> "" (spherical)
 ------------------------------------------------------------------------------
       Tag                 Description            Shells   Functions and Types
 ---------------- ------------------------------  ------  ---------------------
 Fe                      user specified             12       34   5s4p2d1f


                                 NWChem SCF Module
                                 -----------------
 
 
                              fe_atom_scf: scf energy
 
 

  ao basis        = "ao basis"
  functions       =    34
  atoms           =     1
  closed shells   =    11
  open shells     =     4
  charge          =   0.00
  wavefunction    = ROHF
  input vectors   = atomic
  output vectors  = ./fe_atom_scf.movecs
  use symmetry    = F
  symmetry adapt  = F


 Summary of "ao basis" -> "ao basis" (spherical)
 ------------------------------------------------------------------------------
       Tag                 Description            Shells   Functions and Types
 ---------------- ------------------------------  ------  ---------------------
 Fe                      user specified             12       34   5s4p2d1f



 Forming initial guess at       0.2s

 
      Superposition of Atomic Density Guess
      -------------------------------------
 
 Sum of atomic energies:       -1262.12957754
 
      Non-variational initial energy
      ------------------------------

 Total energy =   -1261.083317
 1-e energy   =   -1744.325566
 2-e energy   =     483.242250
 HOMO         =      -0.237847
 LUMO         =      -0.237847
 

 Starting SCF solution at       1.3s



 ----------------------------------------------
         Quadratically convergent ROHF

 Convergence threshold     :          1.000E-04
 Maximum no. of iterations :           30
 Final Fock-matrix accuracy:          1.000E-07
 ----------------------------------------------


 #quartets = 3.081D+03 #integrals = 2.373D+04 #direct =  0.0% #cached =100.0%


 Integral file          = ./fe_atom_scf.aoints.0
 Record size in doubles =    65536    No. of integs per rec  =    43688
 Max. records in memory =        8    Max. records in file   = ********
 No. of bits per label  =        8    No. of bits per value  =       64


              iter       energy          gnorm     gmax       time
             ----- ------------------- --------- --------- --------
                 1    -1262.2203017409  8.29D-01  4.08D-01      1.5
                 2    -1262.2612787793  1.87D-01  8.93D-02      1.5
                 3    -1262.2631346818  8.14D-03  6.08D-03      1.5
                 4    -1262.2631426910  5.61D-05  3.25D-05      1.5


       Final ROHF results 
       ------------------ 

         Total SCF energy =  -1262.263142691015
      One-electron energy =  -1744.714626768629
      Two-electron energy =    482.451484077614
 Nuclear repulsion energy =      0.000000000000

        Time for solution =      0.3s


             Final eigenvalues
             -----------------

              1      
    1 -261.3412
    2  -31.9220
    3  -27.4140
    4  -27.3972
    5  -27.3940
    6   -4.1508
    7   -2.7339
    8   -2.7216
    9   -2.7191
   10   -0.5248
   11   -0.2531
   12   -0.1665
   13   -0.1567
   14   -0.1499
   15   -0.1148
   16    0.0431
   17    0.0464
   18    0.0471
   19    0.1944
   20    0.4382
   21    0.4508
   22    0.4533
   23    1.7943
   24    1.8030
   25    1.8092
 
                       ROHF Final Molecular Orbital Analysis
                       -------------------------------------
 
 Vector    2  Occ=2.000000D+00  E=-3.192197D+01
              MO Center=  5.7D-18,  1.7D-17,  2.3D-17, r^2= 2.4D-02
   Bfn.  Coefficient  Atom+Function         Bfn.  Coefficient  Atom+Function  
  ----- ------------  ---------------      ----- ------------  ---------------
     2      1.036524  1 Fe s                  1      0.303365  1 Fe s          
 
 Vector    3  Occ=2.000000D+00  E=-2.741398D+01
              MO Center=  2.2D-18, -7.0D-18,  1.9D-17, r^2= 1.9D-02
   Bfn.  Coefficient  Atom+Function         Bfn.  Coefficient  Atom+Function  
  ----- ------------  ---------------      ----- ------------  ---------------
     5      0.960261  1 Fe pz                 3      0.200334  1 Fe px         
     4     -0.177673  1 Fe py         
 
 Vector    4  Occ=2.000000D+00  E=-2.739720D+01
              MO Center= -4.0D-17, -1.0D-17,  7.3D-19, r^2= 1.9D-02
   Bfn.  Coefficient  Atom+Function         Bfn.  Coefficient  Atom+Function  
  ----- ------------  ---------------      ----- ------------  ---------------
     3      0.707580  1 Fe px                 4      0.701890  1 Fe py         
 
 Vector    5  Occ=2.000000D+00  E=-2.739395D+01
              MO Center=  3.6D-18, -1.4D-17, -1.1D-17, r^2= 1.9D-02
   Bfn.  Coefficient  Atom+Function         Bfn.  Coefficient  Atom+Function  
  ----- ------------  ---------------      ----- ------------  ---------------
     4     -0.685132  1 Fe py                 3      0.672921  1 Fe px         
     5     -0.267155  1 Fe pz         
 
 Vector    6  Occ=2.000000D+00  E=-4.150784D+00
              MO Center=  3.1D-16,  7.8D-17, -5.2D-16, r^2= 2.2D-01
   Bfn.  Coefficient  Atom+Function         Bfn.  Coefficient  Atom+Function  
  ----- ------------  ---------------      ----- ------------  ---------------
     6      1.083063  1 Fe s                  2     -0.444470  1 Fe s          
 
 Vector    7  Occ=2.000000D+00  E=-2.733854D+00
              MO Center=  7.2D-17, -4.1D-17,  2.7D-16, r^2= 2.5D-01
   Bfn.  Coefficient  Atom+Function         Bfn.  Coefficient  Atom+Function  
  ----- ------------  ---------------      ----- ------------  ---------------
     9      1.024124  1 Fe pz                 5     -0.356116  1 Fe pz         
     7      0.213658  1 Fe px                 8     -0.189489  1 Fe py         
 
 Vector    8  Occ=2.000000D+00  E=-2.721584D+00
              MO Center= -2.0D-16,  2.0D-17, -5.3D-18, r^2= 2.5D-01
   Bfn.  Coefficient  Atom+Function         Bfn.  Coefficient  Atom+Function  
  ----- ------------  ---------------      ----- ------------  ---------------
     7      0.754651  1 Fe px                 8      0.748583  1 Fe py         
     3     -0.262323  1 Fe px                 4     -0.260214  1 Fe py         
 
 Vector    9  Occ=2.000000D+00  E=-2.719117D+00
              MO Center= -1.0D-16,  7.3D-17, -7.2D-18, r^2= 2.5D-01
   Bfn.  Coefficient  Atom+Function         Bfn.  Coefficient  Atom+Function  
  ----- ------------  ---------------      ----- ------------  ---------------
     8     -0.730715  1 Fe py                 7      0.717692  1 Fe px         
     9     -0.284929  1 Fe pz                 4      0.253985  1 Fe py         
     3     -0.249458  1 Fe px         
 
 Vector   10  Occ=2.000000D+00  E=-5.248222D-01
              MO Center= -1.8D-16,  4.8D-17,  8.9D-17, r^2= 4.0D-01
   Bfn.  Coefficient  Atom+Function         Bfn.  Coefficient  Atom+Function  
  ----- ------------  ---------------      ----- ------------  ---------------
    18      0.693457  1 Fe d -2              23      0.439165  1 Fe d -2       
    19     -0.158733  1 Fe d -1       
 
 Vector   11  Occ=2.000000D+00  E=-2.530636D-01
              MO Center=  1.3D-14,  9.4D-16, -1.8D-14, r^2= 3.5D+00
   Bfn.  Coefficient  Atom+Function         Bfn.  Coefficient  Atom+Function  
  ----- ------------  ---------------      ----- ------------  ---------------
    14     -0.550551  1 Fe s                 10      0.522767  1 Fe s          
     6     -0.272981  1 Fe s          
 
 Vector   12  Occ=1.000000D+00  E=-1.664724D-01
              MO Center=  4.0D-17, -1.5D-16,  1.1D-16, r^2= 3.8D-01
   Bfn.  Coefficient  Atom+Function         Bfn.  Coefficient  Atom+Function  
  ----- ------------  ---------------      ----- ------------  ---------------
    20      0.669450  1 Fe d  0              25      0.384167  1 Fe d  0       
    21     -0.240732  1 Fe d  1              19     -0.210784  1 Fe d -1       
 
 Vector   13  Occ=1.000000D+00  E=-1.567150D-01
              MO Center= -8.4D-17, -1.8D-16,  7.2D-17, r^2= 3.8D-01
   Bfn.  Coefficient  Atom+Function         Bfn.  Coefficient  Atom+Function  
  ----- ------------  ---------------      ----- ------------  ---------------
    19      0.509674  1 Fe d -1              21     -0.508735  1 Fe d  1       
    24      0.293704  1 Fe d -1              26     -0.293163  1 Fe d  1       
    22      0.200557  1 Fe d  2       
 
 Vector   14  Occ=1.000000D+00  E=-1.498618D-01
              MO Center=  9.5D-17, -5.8D-17,  1.2D-16, r^2= 3.8D-01
   Bfn.  Coefficient  Atom+Function         Bfn.  Coefficient  Atom+Function  
  ----- ------------  ---------------      ----- ------------  ---------------
    19      0.459057  1 Fe d -1              21      0.445686  1 Fe d  1       
    20      0.334147  1 Fe d  0              24      0.265293  1 Fe d -1       
    26      0.257566  1 Fe d  1              18      0.193128  1 Fe d -2       
    25      0.193107  1 Fe d  0       
 
 Vector   15  Occ=1.000000D+00  E=-1.148053D-01
              MO Center=  6.8D-16,  3.8D-17, -8.5D-17, r^2= 3.8D-01
   Bfn.  Coefficient  Atom+Function         Bfn.  Coefficient  Atom+Function  
  ----- ------------  ---------------      ----- ------------  ---------------
    22      0.716295  1 Fe d  2              27      0.420317  1 Fe d  2       
    21      0.150423  1 Fe d  1       
 
 Vector   16  Occ=0.000000D+00  E= 4.310725D-02
              MO Center=  4.1D-15, -3.6D-15,  1.9D-14, r^2= 8.0D+00
   Bfn.  Coefficient  Atom+Function         Bfn.  Coefficient  Atom+Function  
  ----- ------------  ---------------      ----- ------------  ---------------
    17      0.901634  1 Fe pz                15      0.188103  1 Fe px         
    16     -0.166825  1 Fe py         
 
 Vector   17  Occ=0.000000D+00  E= 4.643964D-02
              MO Center= -1.0D-14, -9.4D-15,  2.9D-16, r^2= 8.1D+00
   Bfn.  Coefficient  Atom+Function         Bfn.  Coefficient  Atom+Function  
  ----- ------------  ---------------      ----- ------------  ---------------
    15      0.671904  1 Fe px                16      0.666502  1 Fe py         
 
 Vector   18  Occ=0.000000D+00  E= 4.708501D-02
              MO Center= -1.3D-14,  1.3D-14,  4.9D-15, r^2= 8.1D+00
   Bfn.  Coefficient  Atom+Function         Bfn.  Coefficient  Atom+Function  
  ----- ------------  ---------------      ----- ------------  ---------------
    16     -0.651948  1 Fe py                15      0.640329  1 Fe px         
    17     -0.254216  1 Fe pz         
 
 Vector   19  Occ=0.000000D+00  E= 1.943705D-01
              MO Center= -4.1D-16,  9.6D-16,  4.0D-15, r^2= 7.8D+00
   Bfn.  Coefficient  Atom+Function         Bfn.  Coefficient  Atom+Function  
  ----- ------------  ---------------      ----- ------------  ---------------
    10      1.837295  1 Fe s                 14      1.837334  1 Fe s          
 
 Vector   20  Occ=0.000000D+00  E= 4.381722D-01
              MO Center= -1.7D-15,  1.7D-15, -9.0D-15, r^2= 5.4D+00
   Bfn.  Coefficient  Atom+Function         Bfn.  Coefficient  Atom+Function  
  ----- ------------  ---------------      ----- ------------  ---------------
    13      1.329764  1 Fe pz                17     -0.975530  1 Fe pz         
    11      0.277422  1 Fe px                12     -0.246040  1 Fe py         
    15     -0.203520  1 Fe px                16      0.180498  1 Fe py         
 
 Vector   21  Occ=0.000000D+00  E= 4.507830D-01
              MO Center=  2.1D-15,  1.9D-15, -2.0D-16, r^2= 5.3D+00
   Bfn.  Coefficient  Atom+Function         Bfn.  Coefficient  Atom+Function  
  ----- ------------  ---------------      ----- ------------  ---------------
    11      0.980592  1 Fe px                12      0.972708  1 Fe py         
    15     -0.711920  1 Fe px                16     -0.706196  1 Fe py         
 
 Vector   22  Occ=0.000000D+00  E= 4.532539D-01
              MO Center=  5.1D-15, -5.1D-15, -2.1D-15, r^2= 5.3D+00
   Bfn.  Coefficient  Atom+Function         Bfn.  Coefficient  Atom+Function  
  ----- ------------  ---------------      ----- ------------  ---------------
    12     -0.949607  1 Fe py                11      0.932682  1 Fe px         
    16      0.688072  1 Fe py                15     -0.675808  1 Fe px         
    13     -0.370282  1 Fe pz                17      0.268301  1 Fe pz         
 
 Vector   23  Occ=0.000000D+00  E= 1.794293D+00
              MO Center=  7.0D-16,  6.3D-17, -5.5D-16, r^2= 8.2D-01
   Bfn.  Coefficient  Atom+Function         Bfn.  Coefficient  Atom+Function  
  ----- ------------  ---------------      ----- ------------  ---------------
    23      0.944420  1 Fe d -2              18     -0.776879  1 Fe d -2       
    24     -0.214867  1 Fe d -1              26     -0.189547  1 Fe d  1       
    19      0.176791  1 Fe d -1              21      0.155968  1 Fe d  1       
 
 Vector   24  Occ=0.000000D+00  E= 1.803016D+00
              MO Center=  6.6D-16,  8.6D-16, -1.6D-16, r^2= 8.4D-01
   Bfn.  Coefficient  Atom+Function         Bfn.  Coefficient  Atom+Function  
  ----- ------------  ---------------      ----- ------------  ---------------
    25      0.894048  1 Fe d  0              20     -0.706263  1 Fe d  0       
    26     -0.322284  1 Fe d  1              24     -0.282394  1 Fe d -1       
    21      0.254618  1 Fe d  1              19      0.223110  1 Fe d -1       
 
 Vector   25  Occ=0.000000D+00  E= 1.809185D+00
              MO Center=  5.2D-16, -3.1D-16, -5.9D-16, r^2= 8.4D-01
   Bfn.  Coefficient  Atom+Function         Bfn.  Coefficient  Atom+Function  
  ----- ------------  ---------------      ----- ------------  ---------------
    24      0.681205  1 Fe d -1              26     -0.679951  1 Fe d  1       
    19     -0.539013  1 Fe d -1              21      0.538020  1 Fe d  1       
    27      0.268054  1 Fe d  2              22     -0.212102  1 Fe d  2       
 

 center of mass
 --------------
 x =   0.00000000 y =   0.00000000 z =   0.00000000

 moments of inertia (a.u.)
 ------------------
           0.000000000000           0.000000000000           0.000000000000
           0.000000000000           0.000000000000           0.000000000000
           0.000000000000           0.000000000000           0.000000000000
 
  Mulliken analysis of the total density
  --------------------------------------

    Atom       Charge   Shell Charges
 -----------   ------   -------------------------------------------------------
    1 Fe  26    26.00   2.00  2.00  6.00  2.00  6.00  0.97  0.00  1.03  0.00  4.06  1.94  0.00
 
 Mulliken analysis of the open-shell density
 -------------------------------------------

    Atom       Charge   Shell Charges
 -----------   ------   -------------------------------------------------------
    1 Fe  26     4.00   0.00 -0.00  0.00  0.00  0.00  0.00  0.00  0.00  0.00  2.74  1.26  0.00
 
       Multipole analysis of the density wrt the origin
       ------------------------------------------------
 
     L   x y z        total         open         nuclear
     -   - - -        -----         ----         -------
     0   0 0 0     -0.000000     -4.000000     26.000000
 
     1   1 0 0     -0.000000     -0.000000      0.000000
     1   0 1 0     -0.000000      0.000000      0.000000
     1   0 0 1      0.000000     -0.000000      0.000000
 
     2   2 0 0    -13.783220     -1.710062      0.000000
     2   1 1 0      0.020370     -0.019520      0.000000
     2   1 0 1      0.080378     -0.077758      0.000000
     2   0 2 0    -13.787411     -1.706011      0.000000
     2   0 1 1     -0.072968      0.070580      0.000000
     2   0 0 2    -13.446280     -2.036184      0.000000
 

 Parallel integral file used       1 records with       0 large values


 Task  times  cpu:        1.5s     wall:        1.5s
 
 
                                NWChem Input Module
                                -------------------
 
 
 Summary of allocated global arrays
-----------------------------------
  No active global arrays


MA_summarize_allocated_blocks: starting scan ...
MA_summarize_allocated_blocks: scan completed: 0 heap blocks, 0 stack blocks
MA usage statistics:

	allocation statistics:
					      heap	     stack
					      ----	     -----
	current number of blocks	         0	         0
	maximum number of blocks	        17	        14
	current total bytes		         0	         0
	maximum total bytes		   4222944	  89017912
	maximum total K-bytes		      4223	     89018
	maximum total M-bytes		         5	        90
 
 
                                     CITATION
                                     --------
                Please cite the following reference when publishing
                           results obtained with NWChem:
 
          E. Apra, E. J. Bylaska, W. A. de Jong, N. Govind, K. Kowalski,
       T. P. Straatsma, M. Valiev, H. J. J. van Dam, Y. Alexeev, J. Anchell,
       V. Anisimov, F. W. Aquino, R. Atta-Fynn, J. Autschbach, N. P. Bauman,
     J. C. Becca, D. E. Bernholdt, K. Bhaskaran-Nair, S. Bogatko, P. Borowski,
         J. Boschen, J. Brabec, A. Bruner, E. Cauet, Y. Chen, G. N. Chuev,
      C. J. Cramer, J. Daily, M. J. O. Deegan, T. H. Dunning Jr., M. Dupuis,
   K. G. Dyall, G. I. Fann, S. A. Fischer, A. Fonari, H. Fruchtl, L. Gagliardi,
      J. Garza, N. Gawande, S. Ghosh, K. Glaesemann, A. W. Gotz, J. Hammond,
       V. Helms, E. D. Hermes, K. Hirao, S. Hirata, M. Jacquelin, L. Jensen,
   B. G. Johnson, H. Jonsson, R. A. Kendall, M. Klemm, R. Kobayashi, V. Konkov,
      S. Krishnamoorthy, M. Krishnan, Z. Lin, R. D. Lins, R. J. Littlefield,
      A. J. Logsdail, K. Lopata, W. Ma, A. V. Marenich, J. Martin del Campo,
   D. Mejia-Rodriguez, J. E. Moore, J. M. Mullin, T. Nakajima, D. R. Nascimento,
    J. A. Nichols, P. J. Nichols, J. Nieplocha, A. Otero-de-la-Roza, B. Palmer,
    A. Panyala, T. Pirojsirikul, B. Peng, R. Peverati, J. Pittner, L. Pollack,
   R. M. Richard, P. Sadayappan, G. C. Schatz, W. A. Shelton, D. W. Silverstein,
   D. M. A. Smith, T. A. Soares, D. Song, M. Swart, H. L. Taylor, G. S. Thomas,
            V. Tipparaju, D. G. Truhlar, K. Tsemekhman, T. Van Voorhis,
      A. Vazquez-Mayagoitia, P. Verma, O. Villa, A. Vishnu, K. D. Vogiatzis,
        D. Wang, J. H. Weare, M. J. Williamson, T. L. Windus, K. Wolinski,
        A. T. Wong, Q. Wu, C. Yang, Q. Yu, M. Zacharias, Z. Zhang, Y. Zhao,
                                and R. J. Harrison
                        "NWChem: Past, present, and future
                         J. Chem. Phys. 152, 184102 (2020)
                               doi:10.1063/5.0004997
 
                                      AUTHORS
                                      -------
  E. Apra, E. J. Bylaska, N. Govind, K. Kowalski, M. Valiev, D. Mejia-Rodriguez,
       A. Kunitsa, N. P. Bauman, A. Panyala, W. A. de Jong, T. P. Straatsma,
   H. J. J. van Dam, D. Wang, T. L. Windus, J. Hammond, J. Autschbach, A. Woods,
    K. Bhaskaran-Nair, J. Brabec, K. Lopata, S. A. Fischer, S. Krishnamoorthy,
     M. Jacquelin, W. Ma, M. Klemm, O. Villa, Y. Chen, V. Anisimov, F. Aquino,
     S. Hirata, M. T. Hackler, E. Hermes, L. Jensen, J. E. Moore, J. C. Becca,
      V. Konjkov, T. Risthaus, M. Malagoli, A. Marenich, A. Otero-de-la-Roza,
        J. Mullin, P. Nichols, R. Peverati, J. Pittner, Y. Zhao, P.-D. Fan,
        A. Fonari, M. J. Williamson, R. J. Harrison, J. R. Rehr, M. Dupuis,
     D. Silverstein, D. M. A. Smith, J. Nieplocha, V. Tipparaju, M. Krishnan,
     B. E. Van Kuiken, A. Vazquez-Mayagoitia, M. Swart, Q. Wu, T. Van Voorhis,
     A. A. Auer, M. Nooijen, L. D. Crosby, E. Brown, G. Cisneros, G. I. Fann,
   H. Fruchtl, J. Garza, K. Hirao, R. A. Kendall, J. A. Nichols, K. Tsemekhman,
    K. Wolinski, J. Anchell, D. E. Bernholdt, P. Borowski, T. Clark, D. Clerc,
   H. Dachsel, M. J. O. Deegan, K. Dyall, D. Elwood, E. Glendening, M. Gutowski,
   A. C. Hess, J. Jaffe, B. G. Johnson, J. Ju, R. Kobayashi, R. Kutteh, Z. Lin,
   R. Littlefield, X. Long, B. Meng, T. Nakajima, S. Niu, L. Pollack, M. Rosing,
   K. Glaesemann, G. Sandrone, M. Stave, H. Taylor, G. Thomas, J. H. van Lenthe,
                               A. T. Wong, Z. Zhang.

 Total times  cpu:        1.6s     wall:        1.6s
