[Molden Format]
[N_Atoms]
 9
[Atoms] (AU)
C1          1      6           0.00000000      0.00000000      1.20198714
C2          2      6           0.03690551      2.33010375     -0.40069747
C2          3      6          -0.03690551     -2.33010375     -0.40069747
H1          4      1          -0.83223093      2.13055899     -2.26667298
H1          5      1           0.83223093     -2.13055899     -2.26667298
H2          6      1          -0.70796995      3.97965892      0.57720096
H2          7      1           0.70796995     -3.97965892      0.57720096
H3          8      1           2.06711549      2.65853858     -0.69541935
H3          9      1          -2.06711549     -2.65853858     -0.69541935
[5D]
[Charge] (Mulliken)
 -0.142873904486455
 -0.151743961490400
 -0.151743961490400
 4.743434036083838E-002
 4.743434036083838E-002
 0.179338275393978
 0.179338275393978
 6.784525022159560E-002
 6.784525022159560E-002
[GTO] (AU)
   1
   s  10
  5.240635300E+03  9.370599866E-04
  7.822047900E+02  7.228659896E-03
  1.783508300E+02  3.634369948E-02
  5.081594200E+01  1.306288781E-01
  1.682356200E+01  3.188985054E-01
  6.175776000E+00  4.390794037E-01
  2.418049000E+00  2.144773669E-01
  5.119000000E-01  9.529119863E-03
  1.565900000E-01 -2.422299965E-03
  5.480600000E-02  8.592699877E-04
   s  10
  5.240635300E+03 -2.013999970E-04
  7.822047900E+02 -1.591299976E-03
  1.783508300E+02 -7.857899883E-03
  5.081594200E+01 -3.078559954E-02
  1.682356200E+01 -7.776049884E-02
  6.175776000E+00 -1.654797975E-01
  2.418049000E+00 -9.353159860E-02
  5.119000000E-01  5.910679012E-01
  1.565900000E-01  5.101798424E-01
  5.480600000E-02  3.602094946E-02
   s  10
  5.240635300E+03  1.894800270E-04
  7.822047900E+02  1.599170228E-03
  1.783508300E+02  7.158711020E-03
  5.081594200E+01  3.255102464E-02
  1.682356200E+01  6.671215950E-02
  6.175776000E+00  2.107147000E-01
  2.418049000E+00  1.606341229E-02
  5.119000000E-01 -1.206081172E+00
  1.565900000E-01  6.235919888E-01
  5.480600000E-02  6.755538762E-01
   p   6
  1.884180000E+01  1.363248000E-02
  4.159240000E+00  8.381052999E-02
  1.206710000E+00  2.857919499E-01
  3.855400000E-01  4.864161999E-01
  1.219400000E-01  3.147641699E-01
  4.267900000E-02  9.093436998E-02
   p   6
  1.884180000E+01 -1.270119972E-02
  4.159240000E+00 -6.726639849E-02
  1.206710000E+00 -3.404230924E-01
  3.855400000E-01 -3.747774916E-01
  1.219400000E-01  4.228405505E-01
  4.267900000E-02  6.428391056E-01
   d   3
  1.283800000E+00  3.208788489E-01
  3.440000000E-01  7.233137275E-01
  9.220000000E-02  1.572138094E-01
 
   2
   s  10
  5.240635300E+03  9.370599866E-04
  7.822047900E+02  7.228659896E-03
  1.783508300E+02  3.634369948E-02
  5.081594200E+01  1.306288781E-01
  1.682356200E+01  3.188985054E-01
  6.175776000E+00  4.390794037E-01
  2.418049000E+00  2.144773669E-01
  5.119000000E-01  9.529119863E-03
  1.565900000E-01 -2.422299965E-03
  5.480600000E-02  8.592699877E-04
   s  10
  5.240635300E+03 -2.013999970E-04
  7.822047900E+02 -1.591299976E-03
  1.783508300E+02 -7.857899883E-03
  5.081594200E+01 -3.078559954E-02
  1.682356200E+01 -7.776049884E-02
  6.175776000E+00 -1.654797975E-01
  2.418049000E+00 -9.353159860E-02
  5.119000000E-01  5.910679012E-01
  1.565900000E-01  5.101798424E-01
  5.480600000E-02  3.602094946E-02
   s  10
  5.240635300E+03  1.894800270E-04
  7.822047900E+02  1.599170228E-03
  1.783508300E+02  7.158711020E-03
  5.081594200E+01  3.255102464E-02
  1.682356200E+01  6.671215950E-02
  6.175776000E+00  2.107147000E-01
  2.418049000E+00  1.606341229E-02
  5.119000000E-01 -1.206081172E+00
  1.565900000E-01  6.235919888E-01
  5.480600000E-02  6.755538762E-01
   p   6
  1.884180000E+01  1.363248000E-02
  4.159240000E+00  8.381052999E-02
  1.206710000E+00  2.857919499E-01
  3.855400000E-01  4.864161999E-01
  1.219400000E-01  3.147641699E-01
  4.267900000E-02  9.093436998E-02
   p   6
  1.884180000E+01 -1.270119972E-02
  4.159240000E+00 -6.726639849E-02
  1.206710000E+00 -3.404230924E-01
  3.855400000E-01 -3.747774916E-01
  1.219400000E-01  4.228405505E-01
  4.267900000E-02  6.428391056E-01
   d   3
  1.283800000E+00  3.208788489E-01
  3.440000000E-01  7.233137275E-01
  9.220000000E-02  1.572138094E-01
 
   3
   s  10
  5.240635300E+03  9.370599866E-04
  7.822047900E+02  7.228659896E-03
  1.783508300E+02  3.634369948E-02
  5.081594200E+01  1.306288781E-01
  1.682356200E+01  3.188985054E-01
  6.175776000E+00  4.390794037E-01
  2.418049000E+00  2.144773669E-01
  5.119000000E-01  9.529119863E-03
  1.565900000E-01 -2.422299965E-03
  5.480600000E-02  8.592699877E-04
   s  10
  5.240635300E+03 -2.013999970E-04
  7.822047900E+02 -1.591299976E-03
  1.783508300E+02 -7.857899883E-03
  5.081594200E+01 -3.078559954E-02
  1.682356200E+01 -7.776049884E-02
  6.175776000E+00 -1.654797975E-01
  2.418049000E+00 -9.353159860E-02
  5.119000000E-01  5.910679012E-01
  1.565900000E-01  5.101798424E-01
  5.480600000E-02  3.602094946E-02
   s  10
  5.240635300E+03  1.894800270E-04
  7.822047900E+02  1.599170228E-03
  1.783508300E+02  7.158711020E-03
  5.081594200E+01  3.255102464E-02
  1.682356200E+01  6.671215950E-02
  6.175776000E+00  2.107147000E-01
  2.418049000E+00  1.606341229E-02
  5.119000000E-01 -1.206081172E+00
  1.565900000E-01  6.235919888E-01
  5.480600000E-02  6.755538762E-01
   p   6
  1.884180000E+01  1.363248000E-02
  4.159240000E+00  8.381052999E-02
  1.206710000E+00  2.857919499E-01
  3.855400000E-01  4.864161999E-01
  1.219400000E-01  3.147641699E-01
  4.267900000E-02  9.093436998E-02
   p   6
  1.884180000E+01 -1.270119972E-02
  4.159240000E+00 -6.726639849E-02
  1.206710000E+00 -3.404230924E-01
  3.855400000E-01 -3.747774916E-01
  1.219400000E-01  4.228405505E-01
  4.267900000E-02  6.428391056E-01
   d   3
  1.283800000E+00  3.208788489E-01
  3.440000000E-01  7.233137275E-01
  9.220000000E-02  1.572138094E-01
 
   4
   s   7
  8.263637400E+01  2.564129993E-03
  1.240955800E+01  1.921260995E-02
  2.823854000E+00  9.505117973E-02
  7.976700000E-01  3.018678192E-01
  2.580530000E-01  4.874459186E-01
  8.989100000E-02  2.354794293E-01
  3.146200000E-02  1.577775996E-02
   s   7
  8.263637400E+01 -4.600800043E-03
  1.240955800E+01 -3.244470030E-02
  2.823854000E+00 -1.710737016E-01
  7.976700000E-01 -5.048672047E-01
  2.580530000E-01 -9.489200089E-02
  8.989100000E-02  3.708555135E-01
  3.146200000E-02  6.556513461E-01
   p   3
  1.662500000E+00  3.012770601E-01
  4.156000000E-01  6.800574203E-01
  1.039000000E-01  1.985626501E-01
 
   5
   s   7
  8.263637400E+01  2.564129993E-03
  1.240955800E+01  1.921260995E-02
  2.823854000E+00  9.505117973E-02
  7.976700000E-01  3.018678192E-01
  2.580530000E-01  4.874459186E-01
  8.989100000E-02  2.354794293E-01
  3.146200000E-02  1.577775996E-02
   s   7
  8.263637400E+01 -4.600800043E-03
  1.240955800E+01 -3.244470030E-02
  2.823854000E+00 -1.710737016E-01
  7.976700000E-01 -5.048672047E-01
  2.580530000E-01 -9.489200089E-02
  8.989100000E-02  3.708555135E-01
  3.146200000E-02  6.556513461E-01
   p   3
  1.662500000E+00  3.012770601E-01
  4.156000000E-01  6.800574203E-01
  1.039000000E-01  1.985626501E-01
 
   6
   s   7
  8.263637400E+01  2.564129993E-03
  1.240955800E+01  1.921260995E-02
  2.823854000E+00  9.505117973E-02
  7.976700000E-01  3.018678192E-01
  2.580530000E-01  4.874459186E-01
  8.989100000E-02  2.354794293E-01
  3.146200000E-02  1.577775996E-02
   s   7
  8.263637400E+01 -4.600800043E-03
  1.240955800E+01 -3.244470030E-02
  2.823854000E+00 -1.710737016E-01
  7.976700000E-01 -5.048672047E-01
  2.580530000E-01 -9.489200089E-02
  8.989100000E-02  3.708555135E-01
  3.146200000E-02  6.556513461E-01
   p   3
  1.662500000E+00  3.012770601E-01
  4.156000000E-01  6.800574203E-01
  1.039000000E-01  1.985626501E-01
 
   7
   s   7
  8.263637400E+01  2.564129993E-03
  1.240955800E+01  1.921260995E-02
  2.823854000E+00  9.505117973E-02
  7.976700000E-01  3.018678192E-01
  2.580530000E-01  4.874459186E-01
  8.989100000E-02  2.354794293E-01
  3.146200000E-02  1.577775996E-02
   s   7
  8.263637400E+01 -4.600800043E-03
  1.240955800E+01 -3.244470030E-02
  2.823854000E+00 -1.710737016E-01
  7.976700000E-01 -5.048672047E-01
  2.580530000E-01 -9.489200089E-02
  8.989100000E-02  3.708555135E-01
  3.146200000E-02  6.556513461E-01
   p   3
  1.662500000E+00  3.012770601E-01
  4.156000000E-01  6.800574203E-01
  1.039000000E-01  1.985626501E-01
 
   8
   s   7
  8.263637400E+01  2.564129993E-03
  1.240955800E+01  1.921260995E-02
  2.823854000E+00  9.505117973E-02
  7.976700000E-01  3.018678192E-01
  2.580530000E-01  4.874459186E-01
  8.989100000E-02  2.354794293E-01
  3.146200000E-02  1.577775996E-02
   s   7
  8.263637400E+01 -4.600800043E-03
  1.240955800E+01 -3.244470030E-02
  2.823854000E+00 -1.710737016E-01
  7.976700000E-01 -5.048672047E-01
  2.580530000E-01 -9.489200089E-02
  8.989100000E-02  3.708555135E-01
  3.146200000E-02  6.556513461E-01
   p   3
  1.662500000E+00  3.012770601E-01
  4.156000000E-01  6.800574203E-01
  1.039000000E-01  1.985626501E-01
 
   9
   s   7
  8.263637400E+01  2.564129993E-03
  1.240955800E+01  1.921260995E-02
  2.823854000E+00  9.505117973E-02
  7.976700000E-01  3.018678192E-01
  2.580530000E-01  4.874459186E-01
  8.989100000E-02  2.354794293E-01
  3.146200000E-02  1.577775996E-02
   s   7
  8.263637400E+01 -4.600800043E-03
  1.240955800E+01 -3.244470030E-02
  2.823854000E+00 -1.710737016E-01
  7.976700000E-01 -5.048672047E-01
  2.580530000E-01 -9.489200089E-02
  8.989100000E-02  3.708555135E-01
  3.146200000E-02  6.556513461E-01
   p   3
  1.662500000E+00  3.012770601E-01
  4.156000000E-01  6.800574203E-01
  1.039000000E-01  1.985626501E-01
 
[MO]
Sym=     1a  
Ene=   -11.2650
Spin= Alpha
Occup=    2.00000
   1         1.00020362
   2         0.00294360
   3         0.00014041
   4         0.00000000
   5         0.00000000
   6        -0.00159983
   7         0.00000000
   8         0.00000000
   9         0.00114236
  10         0.00049200
  11         0.00000000
  12         0.00000000
  13        -0.00074000
  14         0.00001880
  15         0.01033305
  16        -0.00081500
  17        -0.00045794
  18        -0.00041965
  19         0.00049054
  20        -0.00040151
  21        -0.00037530
  22         0.00024924
  23        -0.00031210
  24         0.00016873
  25        -0.00001722
  26         0.00019890
  27         0.00037352
  28         0.00002935
  29         0.01033305
  30        -0.00081500
  31        -0.00045794
  32         0.00041965
  33        -0.00049054
  34        -0.00040151
  35         0.00037530
  36        -0.00024924
  37        -0.00031210
  38         0.00016873
  39         0.00001722
  40        -0.00019890
  41         0.00037352
  42         0.00002935
  43        -0.00015066
  44        -0.00011335
  45         0.00000022
  46        -0.00009681
  47         0.00001394
  48        -0.00015066
  49        -0.00011335
  50        -0.00000022
  51         0.00009681
  52         0.00001394
  53        -0.00009545
  54        -0.00026698
  55         0.00007239
  56         0.00002579
  57        -0.00006349
  58        -0.00009545
  59        -0.00026698
  60        -0.00007239
  61        -0.00002579
  62        -0.00006349
  63         0.00068026
  64         0.00042652
  65        -0.00003172
  66        -0.00009420
  67         0.00008923
  68         0.00068026
  69         0.00042652
  70         0.00003172
  71         0.00009420
  72         0.00008923
Sym=     2a  
Ene=   -11.2310
Spin= Alpha
Occup=    2.00000
   1        -0.01477458
   2         0.00150972
   3         0.00061908
   4         0.00000000
   5         0.00000000
   6        -0.00045385
   7         0.00000000
   8         0.00000000
   9        -0.00024511
  10        -0.00003032
  11         0.00000000
  12         0.00000000
  13         0.00010602
  14        -0.00005636
  15         0.70685323
  16         0.00021119
  17        -0.00181787
  18         0.00021316
  19         0.00014513
  20        -0.00003139
  21        -0.00000835
  22         0.00004985
  23         0.00006948
  24        -0.00004711
  25         0.00000469
  26         0.00002312
  27         0.00000284
  28        -0.00002526
  29         0.70685323
  30         0.00021119
  31        -0.00181787
  32        -0.00021316
  33        -0.00014513
  34        -0.00003139
  35         0.00000835
  36        -0.00004985
  37         0.00006948
  38        -0.00004711
  39        -0.00000469
  40        -0.00002312
  41         0.00000284
  42        -0.00002526
  43         0.00073138
  44         0.00021248
  45        -0.00004683
  46        -0.00005648
  47        -0.00007507
  48         0.00073138
  49         0.00021248
  50         0.00004683
  51         0.00005648
  52        -0.00007507
  53         0.00059699
  54         0.00015451
  55        -0.00004711
  56         0.00007774
  57         0.00005501
  58         0.00059699
  59         0.00015451
  60         0.00004711
  61        -0.00007774
  62         0.00005501
  63         0.00035088
  64         0.00005088
  65         0.00017987
  66         0.00004651
  67        -0.00005700
  68         0.00035088
  69         0.00005088
  70        -0.00017987
  71        -0.00004651
  72        -0.00005700
Sym=     3a  
Ene=    -1.0631
Spin= Alpha
Occup=    2.00000
   1        -0.03087124
   2         0.40908632
   3        -0.02228797
   4         0.00000000
   5         0.00000000
   6        -0.11826453
   7         0.00000000
   8         0.00000000
   9         0.04917254
  10         0.00554898
  11         0.00000000
  12         0.00000000
  13        -0.02171878
  14         0.00026155
  15        -0.05311839
  16         0.27238725
  17        -0.07239763
  18        -0.00751295
  19        -0.07247176
  20         0.02636022
  21        -0.01484562
  22         0.02040386
  23        -0.01301242
  24        -0.00412765
  25         0.00076946
  26        -0.01128115
  27        -0.00870695
  28         0.00006826
  29        -0.05311839
  30         0.27238725
  31        -0.07239763
  32         0.00751295
  33         0.07247176
  34         0.02636022
  35         0.01484562
  36        -0.02040386
  37        -0.01301242
  38        -0.00412765
  39        -0.00076946
  40         0.01128115
  41        -0.00870695
  42         0.00006826
  43         0.11621303
  44        -0.01209723
  45         0.00681476
  46        -0.00045640
  47         0.01434939
  48         0.11621303
  49        -0.01209723
  50        -0.00681476
  51         0.00045640
  52         0.01434939
  53         0.09949333
  54        -0.01486896
  55         0.00544688
  56        -0.01212568
  57        -0.00543983
  58         0.09949333
  59        -0.01486896
  60        -0.00544688
  61         0.01212568
  62        -0.00543983
  63         0.14166521
  64         0.00076760
  65        -0.01672324
  66        -0.00480292
  67         0.00358658
  68         0.14166521
  69         0.00076760
  70         0.01672324
  71         0.00480292
  72         0.00358658
Sym=     4a  
Ene=    -0.7274
Spin= Alpha
Occup=    2.00000
   1         0.02549557
   2        -0.53650797
   3         0.00927740
   4         0.00000000
   5         0.00000000
   6         0.04712135
   7         0.00000000
   8         0.00000000
   9        -0.02416118
  10        -0.00364952
  11         0.00000000
  12         0.00000000
  13         0.01250676
  14        -0.00047035
  15        -0.01912320
  16         0.14965042
  17        -0.02394396
  18        -0.00380328
  19         0.23700156
  20        -0.15588659
  21        -0.00193941
  22        -0.05441585
  23         0.04079438
  24         0.00437717
  25         0.00144563
  26         0.02669034
  27         0.01552386
  28        -0.00184964
  29        -0.01912320
  30         0.14965042
  31        -0.02394396
  32         0.00380328
  33        -0.23700156
  34        -0.15588659
  35         0.00193941
  36         0.05441585
  37         0.04079438
  38         0.00437717
  39        -0.00144563
  40        -0.02669034
  41         0.01552386
  42        -0.00184964
  43         0.17949998
  44        -0.01435668
  45         0.00839941
  46         0.00577460
  47         0.01383044
  48         0.17949998
  49        -0.01435668
  50        -0.00839941
  51        -0.00577460
  52         0.01383044
  53         0.15950955
  54        -0.01866057
  55         0.00634737
  56        -0.00942219
  57        -0.01182528
  58         0.15950955
  59        -0.01866057
  60        -0.00634737
  61         0.00942219
  62        -0.01182528
  63         0.13453073
  64        -0.00726273
  65        -0.01436585
  66         0.00157531
  67        -0.00134162
  68         0.13453073
  69        -0.00726273
  70         0.01436585
  71        -0.00157531
  72        -0.00134162
Sym=     5a  
Ene=    -0.6094
Spin= Alpha
Occup=    2.00000
   1         0.00157897
   2         0.11969487
   3         0.00076367
   4         0.00000000
   5         0.00000000
   6         0.19467464
   7         0.00000000
   8         0.00000000
   9        -0.02236562
  10        -0.02467283
  11         0.00000000
  12         0.00000000
  13        -0.00638348
  14         0.00122788
  15         0.00003838
  16         0.02773823
  17         0.00087922
  18         0.00742659
  19         0.24239169
  20         0.29281270
  21        -0.00575059
  22        -0.03905701
  23        -0.04096607
  24        -0.01259834
  25        -0.01630329
  26         0.00743130
  27        -0.00612330
  28        -0.01013790
  29         0.00003838
  30         0.02773823
  31         0.00087922
  32        -0.00742659
  33        -0.24239169
  34         0.29281270
  35         0.00575059
  36         0.03905701
  37        -0.04096607
  38        -0.01259834
  39         0.01630329
  40        -0.00743130
  41        -0.00612330
  42        -0.01013790
  43        -0.21291087
  44         0.03489286
  45        -0.00766121
  46         0.00405874
  47        -0.01099874
  48        -0.21291087
  49         0.03489286
  50         0.00766121
  51        -0.00405874
  52        -0.01099874
  53         0.24254105
  54        -0.04536261
  55         0.00860414
  56        -0.01207046
  57        -0.00649872
  58         0.24254105
  59        -0.04536261
  60        -0.00860414
  61         0.01207046
  62        -0.00649872
  63         0.02366749
  64         0.00199216
  65        -0.00152709
  66         0.00490226
  67         0.00676551
  68         0.02366749
  69         0.00199216
  70         0.00152709
  71        -0.00490226
  72         0.00676551
Sym=     6a  
Ene=    -0.5492
Spin= Alpha
Occup=    2.00000
   1        -0.00078835
   2        -0.08137458
   3        -0.00411734
   4         0.00000000
   5         0.00000000
   6        -0.00424438
   7         0.00000000
   8         0.00000000
   9         0.00040110
  10        -0.00117496
  11         0.00000000
  12         0.00000000
  13         0.00393622
  14         0.02311995
  15        -0.00106253
  16        -0.01636106
  17        -0.00193422
  18         0.41319086
  19        -0.01642419
  20        -0.00318149
  21        -0.05309821
  22        -0.00194857
  23        -0.00042674
  24        -0.01816044
  25        -0.00779858
  26        -0.00832585
  27         0.02487069
  28         0.00770803
  29        -0.00106253
  30        -0.01636106
  31        -0.00193422
  32        -0.41319086
  33         0.01642419
  34        -0.00318149
  35         0.05309821
  36         0.00194857
  37        -0.00042674
  38        -0.01816044
  39         0.00779858
  40         0.00832585
  41         0.02487069
  42         0.00770803
  43        -0.15034900
  44         0.01684131
  45         0.00412702
  46        -0.00091199
  47        -0.01139812
  48        -0.15034900
  49         0.01684131
  50        -0.00412702
  51         0.00091199
  52        -0.01139812
  53        -0.13112819
  54         0.02279953
  55         0.00548431
  56         0.00881038
  57         0.00586213
  58        -0.13112819
  59         0.02279953
  60        -0.00548431
  61        -0.00881038
  62         0.00586213
  63         0.33821798
  64        -0.04045284
  65        -0.01847209
  66        -0.00658345
  67         0.00469160
  68         0.33821798
  69        -0.04045284
  70         0.01847209
  71         0.00658345
  72         0.00469160
Sym=     7a  
Ene=    -0.3381
Spin= Alpha
Occup=    2.00000
   1         0.03073512
   2         0.51937193
   3         0.08395993
   4         0.00000000
   5         0.00000000
   6         0.78825786
   7         0.00000000
   8         0.00000000
   9         0.02298583
  10        -0.02379760
  11         0.00000000
  12         0.00000000
  13         0.02122739
  14         0.00268187
  15        -0.00157396
  16        -0.12218347
  17         0.00190667
  18         0.02341896
  19         0.08449015
  20        -0.21019234
  21         0.00102020
  22        -0.03118100
  23         0.00567773
  24         0.02923497
  25         0.00831989
  26        -0.00610592
  27         0.02102928
  28         0.00449165
  29        -0.00157396
  30        -0.12218347
  31         0.00190667
  32        -0.02341896
  33        -0.08449015
  34        -0.21019234
  35        -0.00102020
  36         0.03118100
  37         0.00567773
  38         0.02923497
  39        -0.00831989
  40         0.00610592
  41         0.02102928
  42         0.00449165
  43         0.20855379
  44         0.02153686
  45         0.00418044
  46         0.00453408
  47         0.00061292
  48         0.20855379
  49         0.02153686
  50        -0.00418044
  51        -0.00453408
  52         0.00061292
  53        -0.11511308
  54         0.00137961
  55        -0.00140034
  56         0.00652799
  57        -0.00229760
  58        -0.11511308
  59         0.00137961
  60         0.00140034
  61        -0.00652799
  62        -0.00229760
  63         0.05375466
  64         0.01347059
  65        -0.00031180
  66         0.00307247
  67        -0.00476577
  68         0.05375466
  69         0.01347059
  70         0.00031180
  71        -0.00307247
  72        -0.00476577
Sym=     8a  
Ene=     0.1190
Spin= Alpha
Occup=    0.00000
   1         0.00040375
   2        -0.08259715
   3        -0.02753276
   4         0.00000000
   5         0.00000000
   6        -0.25164876
   7         0.00000000
   8         0.00000000
   9        -0.07994679
  10        -0.00070420
  11         0.00000000
  12         0.00000000
  13         0.00157204
  14         0.00187948
  15        -0.17353959
  16        -1.22811641
  17        -0.49661942
  18        -0.20663421
  19        -0.18362379
  20         0.18009869
  21        -0.16455921
  22        -0.05341628
  23         0.05053384
  24        -0.00871516
  25        -0.00337860
  26        -0.00506174
  27        -0.01797935
  28         0.00024142
  29        -0.17353959
  30        -1.22811641
  31        -0.49661942
  32         0.20663421
  33         0.18362379
  34         0.18009869
  35         0.16455921
  36         0.05341628
  37         0.05053384
  38        -0.00871516
  39         0.00337860
  40         0.00506174
  41        -0.01797935
  42         0.00024142
  43         0.33293392
  44         0.28287466
  45         0.00699247
  46        -0.00422664
  47         0.01568277
  48         0.33293392
  49         0.28287466
  50        -0.00699247
  51         0.00422664
  52         0.01568277
  53         0.41183243
  54         0.27708713
  55         0.00725315
  56        -0.01569001
  57        -0.00347559
  58         0.41183243
  59         0.27708713
  60        -0.00725315
  61         0.01569001
  62        -0.00347559
  63         0.64173378
  64         0.43704824
  65        -0.02376823
  66        -0.01238895
  67         0.00799594
  68         0.64173378
  69         0.43704824
  70         0.02376823
  71         0.01238895
  72         0.00799594
Sym=     9a  
Ene=     0.1942
Spin= Alpha
Occup=    0.00000
   1        -0.26636956
   2        -1.85398510
   3        -0.73820501
   4         0.00000000
   5         0.00000000
   6         0.34784489
   7         0.00000000
   8         0.00000000
   9         0.38621147
  10         0.01702389
  11         0.00000000
  12         0.00000000
  13         0.04766729
  14         0.00332500
  15         0.04076115
  16         0.30517587
  17         0.12008980
  18        -0.26975194
  19        -0.61279887
  20         0.37056243
  21        -0.21959962
  22        -0.56285059
  23         0.50259264
  24        -0.00866080
  25         0.00147136
  26         0.00227646
  27        -0.01339524
  28        -0.00427863
  29         0.04076115
  30         0.30517587
  31         0.12008980
  32         0.26975194
  33         0.61279887
  34         0.37056243
  35         0.21959962
  36         0.56285059
  37         0.50259264
  38        -0.00866080
  39        -0.00147136
  40        -0.00227646
  41        -0.01339524
  42        -0.00427863
  43         0.03644921
  44        -0.04442891
  45         0.01259183
  46         0.00670435
  47         0.01479794
  48         0.03644921
  49        -0.04442891
  50        -0.01259183
  51        -0.00670435
  52         0.01479794
  53         0.06022096
  54         0.04219503
  55        -0.00074634
  56         0.01131752
  57        -0.01588440
  58         0.06022096
  59         0.04219503
  60         0.00074634
  61        -0.01131752
  62        -0.01588440
  63         0.43437177
  64         0.22306552
  65        -0.02031083
  66        -0.00157770
  67        -0.01084634
  68         0.43437177
  69         0.22306552
  70         0.02031083
  71         0.00157770
  72        -0.01084634
Sym=    10a  
Ene=     0.2613
Spin= Alpha
Occup=    0.00000
   1        -0.01972282
   2        -0.14285121
   3        -0.10322681
   4         0.00000000
   5         0.00000000
   6        -0.10663922
   7         0.00000000
   8         0.00000000
   9         0.16296832
  10         0.06290156
  11         0.00000000
  12         0.00000000
  13        -0.00033747
  14        -0.03548093
  15         0.00631617
  16         0.02547956
  17         0.02970646
  18         1.13251195
  19         0.04849705
  20         0.24806444
  21         1.10109185
  22         0.25443662
  23         0.36706274
  24        -0.04835516
  25        -0.02411163
  26         0.00237457
  27        -0.01758361
  28         0.01534348
  29         0.00631617
  30         0.02547956
  31         0.02970646
  32        -1.13251195
  33        -0.04849705
  34         0.24806444
  35        -1.10109185
  36        -0.25443662
  37         0.36706274
  38        -0.04835516
  39         0.02411163
  40        -0.00237457
  41        -0.01758361
  42         0.01534348
  43         0.95181353
  44         0.49969628
  45         0.02115306
  46        -0.02259827
  47         0.05544785
  48         0.95181353
  49         0.49969628
  50        -0.02115306
  51         0.02259827
  52         0.05544785
  53         0.40313751
  54         0.30634131
  55        -0.01686013
  56         0.00614878
  57        -0.00194970
  58         0.40313751
  59         0.30634131
  60         0.01686013
  61        -0.00614878
  62        -0.00194970
  63        -1.25375973
  64        -0.64067381
  65         0.04118243
  66         0.01478661
  67        -0.02492590
  68        -1.25375973
  69        -0.64067381
  70        -0.04118243
  71        -0.01478661
  72        -0.02492590
Sym=    11a  
Ene=     0.2789
Spin= Alpha
Occup=    0.00000
   1         0.11867208
   2         0.83764863
   3         0.32704661
   4         0.00000000
   5         0.00000000
   6        -0.42083629
   7         0.00000000
   8         0.00000000
   9        -0.35088905
  10         0.06396300
  11         0.00000000
  12         0.00000000
  13         0.06222494
  14         0.02870271
  15        -0.01278068
  16        -0.08270052
  17        -0.00492507
  18        -0.75893683
  19         0.53521029
  20        -0.08494960
  21        -0.75527839
  22         0.67741367
  23         0.30266764
  24        -0.00726059
  25         0.00087235
  26        -0.00499990
  27        -0.04425047
  28        -0.01899352
  29        -0.01278068
  30        -0.08270052
  31        -0.00492507
  32         0.75893683
  33        -0.53521029
  34        -0.08494960
  35         0.75527839
  36        -0.67741367
  37         0.30266764
  38        -0.00726059
  39        -0.00087235
  40         0.00499990
  41        -0.04425047
  42        -0.01899352
  43        -0.37703876
  44        -0.27515524
  45         0.02619082
  46        -0.00118086
  47         0.02256624
  48        -0.37703876
  49        -0.27515524
  50        -0.02619082
  51         0.00118086
  52         0.02256624
  53        -0.67872678
  54        -0.23451397
  55        -0.02513525
  56         0.06522406
  57        -0.00218803
  58        -0.67872678
  59        -0.23451397
  60         0.02513525
  61        -0.06522406
  62        -0.00218803
  63         0.82005839
  64         0.45288752
  65        -0.03776359
  66        -0.03046332
  67        -0.01812339
  68         0.82005839
  69         0.45288752
  70         0.03776359
  71         0.03046332
  72        -0.01812339
Sym=    12a  
Ene=     0.3287
Spin= Alpha
Occup=    0.00000
   1         0.01607263
   2         0.15099990
   3         0.10351132
   4         0.00000000
   5         0.00000000
   6        -0.47955614
   7         0.00000000
   8         0.00000000
   9        -0.61299484
  10         0.00079193
  11         0.00000000
  12         0.00000000
  13         0.01955729
  14        -0.07983908
  15        -0.03089152
  16        -0.15748803
  17        -0.05440284
  18        -0.14985329
  19         0.38326158
  20         0.51423098
  21         0.42559942
  22         0.26875835
  23         0.49570926
  24        -0.01731953
  25        -0.01109598
  26        -0.00636109