[Molden Format]
[N_Atoms]
 9
[Atoms] (AU)
C1          1      6           0.00000000      0.00000000      1.20198714
C2          2      6           0.03690551      2.33010375     -0.40069747
C2          3      6          -0.03690551     -2.33010375     -0.40069747
H1          4      1          -0.83223093      2.13055899     -2.26667298
H1          5      1           0.83223093     -2.13055899     -2.26667298
H2          6      1          -0.70796995      3.97965892      0.57720096
H2          7      1           0.70796995     -3.97965892      0.57720096
H3          8      1           2.06711549      2.65853858     -0.69541935
H3          9      1          -2.06711549     -2.65853858     -0.69541935
[5D]
[Charge] (Mulliken)
 0.00000000000000
 0.00000000000000
 0.00000000000000
 0.00000000000000
 0.00000000000000
 0.00000000000000
 0.00000000000000
 0.00000000000000
 0.00000000000000
[GTO] (AU)
   1
   s  10
  5.240635300E+03  9.370599866E-04
  7.822047900E+02  7.228659896E-03
  1.783508300E+02  3.634369948E-02
  5.081594200E+01  1.306288781E-01
  1.682356200E+01  3.188985054E-01
  6.175776000E+00  4.390794037E-01
  2.418049000E+00  2.144773669E-01
  5.119000000E-01  9.529119863E-03
  1.565900000E-01 -2.422299965E-03
  5.480600000E-02  8.592699877E-04
   s  10
  5.240635300E+03 -2.013999970E-04
  7.822047900E+02 -1.591299976E-03
  1.783508300E+02 -7.857899883E-03
  5.081594200E+01 -3.078559954E-02
  1.682356200E+01 -7.776049884E-02
  6.175776000E+00 -1.654797975E-01
  2.418049000E+00 -9.353159860E-02
  5.119000000E-01  5.910679012E-01
  1.565900000E-01  5.101798424E-01
  5.480600000E-02  3.602094946E-02
   s  10
  5.240635300E+03  1.894800270E-04
  7.822047900E+02  1.599170228E-03
  1.783508300E+02  7.158711020E-03
  5.081594200E+01  3.255102464E-02
  1.682356200E+01  6.671215950E-02
  6.175776000E+00  2.107147000E-01
  2.418049000E+00  1.606341229E-02
  5.119000000E-01 -1.206081172E+00
  1.565900000E-01  6.235919888E-01
  5.480600000E-02  6.755538762E-01
   p   6
  1.884180000E+01  1.363248000E-02
  4.159240000E+00  8.381052999E-02
  1.206710000E+00  2.857919499E-01
  3.855400000E-01  4.864161999E-01
  1.219400000E-01  3.147641699E-01
  4.267900000E-02  9.093436998E-02
   p   6
  1.884180000E+01 -1.270119972E-02
  4.159240000E+00 -6.726639849E-02
  1.206710000E+00 -3.404230924E-01
  3.855400000E-01 -3.747774916E-01
  1.219400000E-01  4.228405505E-01
  4.267900000E-02  6.428391056E-01
   d   3
  1.283800000E+00  3.208788489E-01
  3.440000000E-01  7.233137275E-01
  9.220000000E-02  1.572138094E-01
 
   2
   s  10
  5.240635300E+03  9.370599866E-04
  7.822047900E+02  7.228659896E-03
  1.783508300E+02  3.634369948E-02
  5.081594200E+01  1.306288781E-01
  1.682356200E+01  3.188985054E-01
  6.175776000E+00  4.390794037E-01
  2.418049000E+00  2.144773669E-01
  5.119000000E-01  9.529119863E-03
  1.565900000E-01 -2.422299965E-03
  5.480600000E-02  8.592699877E-04
   s  10
  5.240635300E+03 -2.013999970E-04
  7.822047900E+02 -1.591299976E-03
  1.783508300E+02 -7.857899883E-03
  5.081594200E+01 -3.078559954E-02
  1.682356200E+01 -7.776049884E-02
  6.175776000E+00 -1.654797975E-01
  2.418049000E+00 -9.353159860E-02
  5.119000000E-01  5.910679012E-01
  1.565900000E-01  5.101798424E-01
  5.480600000E-02  3.602094946E-02
   s  10
  5.240635300E+03  1.894800270E-04
  7.822047900E+02  1.599170228E-03
  1.783508300E+02  7.158711020E-03
  5.081594200E+01  3.255102464E-02
  1.682356200E+01  6.671215950E-02
  6.175776000E+00  2.107147000E-01
  2.418049000E+00  1.606341229E-02
  5.119000000E-01 -1.206081172E+00
  1.565900000E-01  6.235919888E-01
  5.480600000E-02  6.755538762E-01
   p   6
  1.884180000E+01  1.363248000E-02
  4.159240000E+00  8.381052999E-02
  1.206710000E+00  2.857919499E-01
  3.855400000E-01  4.864161999E-01
  1.219400000E-01  3.147641699E-01
  4.267900000E-02  9.093436998E-02
   p   6
  1.884180000E+01 -1.270119972E-02
  4.159240000E+00 -6.726639849E-02
  1.206710000E+00 -3.404230924E-01
  3.855400000E-01 -3.747774916E-01
  1.219400000E-01  4.228405505E-01
  4.267900000E-02  6.428391056E-01
   d   3
  1.283800000E+00  3.208788489E-01
  3.440000000E-01  7.233137275E-01
  9.220000000E-02  1.572138094E-01
 
   3
   s  10
  5.240635300E+03  9.370599866E-04
  7.822047900E+02  7.228659896E-03
  1.783508300E+02  3.634369948E-02
  5.081594200E+01  1.306288781E-01
  1.682356200E+01  3.188985054E-01
  6.175776000E+00  4.390794037E-01
  2.418049000E+00  2.144773669E-01
  5.119000000E-01  9.529119863E-03
  1.565900000E-01 -2.422299965E-03
  5.480600000E-02  8.592699877E-04
   s  10
  5.240635300E+03 -2.013999970E-04
  7.822047900E+02 -1.591299976E-03
  1.783508300E+02 -7.857899883E-03
  5.081594200E+01 -3.078559954E-02
  1.682356200E+01 -7.776049884E-02
  6.175776000E+00 -1.654797975E-01
  2.418049000E+00 -9.353159860E-02
  5.119000000E-01  5.910679012E-01
  1.565900000E-01  5.101798424E-01
  5.480600000E-02  3.602094946E-02
   s  10
  5.240635300E+03  1.894800270E-04
  7.822047900E+02  1.599170228E-03
  1.783508300E+02  7.158711020E-03
  5.081594200E+01  3.255102464E-02
  1.682356200E+01  6.671215950E-02
  6.175776000E+00  2.107147000E-01
  2.418049000E+00  1.606341229E-02
  5.119000000E-01 -1.206081172E+00
  1.565900000E-01  6.235919888E-01
  5.480600000E-02  6.755538762E-01
   p   6
  1.884180000E+01  1.363248000E-02
  4.159240000E+00  8.381052999E-02
  1.206710000E+00  2.857919499E-01
  3.855400000E-01  4.864161999E-01
  1.219400000E-01  3.147641699E-01
  4.267900000E-02  9.093436998E-02
   p   6
  1.884180000E+01 -1.270119972E-02
  4.159240000E+00 -6.726639849E-02
  1.206710000E+00 -3.404230924E-01
  3.855400000E-01 -3.747774916E-01
  1.219400000E-01  4.228405505E-01
  4.267900000E-02  6.428391056E-01
   d   3
  1.283800000E+00  3.208788489E-01
  3.440000000E-01  7.233137275E-01
  9.220000000E-02  1.572138094E-01
 
   4
   s   7
  8.263637400E+01  2.564129993E-03
  1.240955800E+01  1.921260995E-02
  2.823854000E+00  9.505117973E-02
  7.976700000E-01  3.018678192E-01
  2.580530000E-01  4.874459186E-01
  8.989100000E-02  2.354794293E-01
  3.146200000E-02  1.577775996E-02
   s   7
  8.263637400E+01 -4.600800043E-03
  1.240955800E+01 -3.244470030E-02
  2.823854000E+00 -1.710737016E-01
  7.976700000E-01 -5.048672047E-01
  2.580530000E-01 -9.489200089E-02
  8.989100000E-02  3.708555135E-01
  3.146200000E-02  6.556513461E-01
   p   3
  1.662500000E+00  3.012770601E-01
  4.156000000E-01  6.800574203E-01
  1.039000000E-01  1.985626501E-01
 
   5
   s   7
  8.263637400E+01  2.564129993E-03
  1.240955800E+01  1.921260995E-02
  2.823854000E+00  9.505117973E-02
  7.976700000E-01  3.018678192E-01
  2.580530000E-01  4.874459186E-01
  8.989100000E-02  2.354794293E-01
  3.146200000E-02  1.577775996E-02
   s   7
  8.263637400E+01 -4.600800043E-03
  1.240955800E+01 -3.244470030E-02
  2.823854000E+00 -1.710737016E-01
  7.976700000E-01 -5.048672047E-01
  2.580530000E-01 -9.489200089E-02
  8.989100000E-02  3.708555135E-01
  3.146200000E-02  6.556513461E-01
   p   3
  1.662500000E+00  3.012770601E-01
  4.156000000E-01  6.800574203E-01
  1.039000000E-01  1.985626501E-01
 
   6
   s   7
  8.263637400E+01  2.564129993E-03
  1.240955800E+01  1.921260995E-02
  2.823854000E+00  9.505117973E-02
  7.976700000E-01  3.018678192E-01
  2.580530000E-01  4.874459186E-01
  8.989100000E-02  2.354794293E-01
  3.146200000E-02  1.577775996E-02
   s   7
  8.263637400E+01 -4.600800043E-03
  1.240955800E+01 -3.244470030E-02
  2.823854000E+00 -1.710737016E-01
  7.976700000E-01 -5.048672047E-01
  2.580530000E-01 -9.489200089E-02
  8.989100000E-02  3.708555135E-01
  3.146200000E-02  6.556513461E-01
   p   3
  1.662500000E+00  3.012770601E-01
  4.156000000E-01  6.800574203E-01
  1.039000000E-01  1.985626501E-01
 
   7
   s   7
  8.263637400E+01  2.564129993E-03
  1.240955800E+01  1.921260995E-02
  2.823854000E+00  9.505117973E-02
  7.976700000E-01  3.018678192E-01
  2.580530000E-01  4.874459186E-01
  8.989100000E-02  2.354794293E-01
  3.146200000E-02  1.577775996E-02
   s   7
  8.263637400E+01 -4.600800043E-03
  1.240955800E+01 -3.244470030E-02
  2.823854000E+00 -1.710737016E-01
  7.976700000E-01 -5.048672047E-01
  2.580530000E-01 -9.489200089E-02
  8.989100000E-02  3.708555135E-01
  3.146200000E-02  6.556513461E-01
   p   3
  1.662500000E+00  3.012770601E-01
  4.156000000E-01  6.800574203E-01
  1.039000000E-01  1.985626501E-01
 
   8
   s   7
  8.263637400E+01  2.564129993E-03
  1.240955800E+01  1.921260995E-02
  2.823854000E+00  9.505117973E-02
  7.976700000E-01  3.018678192E-01
  2.580530000E-01  4.874459186E-01
  8.989100000E-02  2.354794293E-01
  3.146200000E-02  1.577775996E-02
   s   7
  8.263637400E+01 -4.600800043E-03
  1.240955800E+01 -3.244470030E-02
  2.823854000E+00 -1.710737016E-01
  7.976700000E-01 -5.048672047E-01
  2.580530000E-01 -9.489200089E-02
  8.989100000E-02  3.708555135E-01
  3.146200000E-02  6.556513461E-01
   p   3
  1.662500000E+00  3.012770601E-01
  4.156000000E-01  6.800574203E-01
  1.039000000E-01  1.985626501E-01
 
   9
   s   7
  8.263637400E+01  2.564129993E-03
  1.240955800E+01  1.921260995E-02
  2.823854000E+00  9.505117973E-02
  7.976700000E-01  3.018678192E-01
  2.580530000E-01  4.874459186E-01
  8.989100000E-02  2.354794293E-01
  3.146200000E-02  1.577775996E-02
   s   7
  8.263637400E+01 -4.600800043E-03
  1.240955800E+01 -3.244470030E-02
  2.823854000E+00 -1.710737016E-01
  7.976700000E-01 -5.048672047E-01
  2.580530000E-01 -9.489200089E-02
  8.989100000E-02  3.708555135E-01
  3.146200000E-02  6.556513461E-01
   p   3
  1.662500000E+00  3.012770601E-01
  4.156000000E-01  6.800574203E-01
  1.039000000E-01  1.985626501E-01
 
[MO]
Sym=     1a  
Ene=   -11.3630
Spin= Alpha
Occup=    2.00000
   1         0.41049422
   2         0.00356172
   3        -0.00000000
   4         0.00000000
   5         0.00000000
   6        -0.00228590
   7         0.00000000
   8         0.00000000
   9        -0.00000000
  10        -0.00000000
  11         0.00000000
  12         0.00000000
  13         0.00000000
  14        -0.00000000
  15         0.64365084
  16         0.00169861
  17         0.00000000
  18        -0.00001499
  19        -0.00153058
  20         0.00067247
  21        -0.00000000
  22         0.00000000
  23         0.00000000
  24         0.00000000
  25        -0.00000000
  26         0.00000000
  27        -0.00000000
  28        -0.00000000
  29         0.64365084
  30         0.00169861
  31         0.00000000
  32         0.00001499
  33         0.00153058
  34         0.00067247
  35         0.00000000
  36        -0.00000000
  37         0.00000000
  38         0.00000000
  39         0.00000000
  40        -0.00000000
  41        -0.00000000
  42        -0.00000000
  43         0.00268154
  44         0.00000000
  45         0.00000000
  46        -0.00000000
  47        -0.00000000
  48         0.00268154
  49         0.00000000
  50        -0.00000000
  51         0.00000000
  52        -0.00000000
  53         0.00256732
  54        -0.00000000
  55        -0.00000000
  56         0.00000000
  57         0.00000000
  58         0.00256732
  59        -0.00000000
  60         0.00000000
  61        -0.00000000
  62         0.00000000
  63         0.00265509
  64         0.00000000
  65        -0.00000000
  66        -0.00000000
  67        -0.00000000
  68         0.00265509
  69         0.00000000
  70         0.00000000
  71         0.00000000
  72        -0.00000000
Sym=     2a  
Ene=   -11.3530
Spin= Alpha
Occup=    2.00000
   1        -0.91110039
   2         0.00125116
   3        -0.00000000
   4         0.00000000
   5         0.00000000
   6        -0.00092475
   7         0.00000000
   8         0.00000000
   9         0.00000000
  10        -0.00000000
  11         0.00000000
  12         0.00000000
  13         0.00000000
  14         0.00000000
  15         0.29052296
  16        -0.00211078
  17         0.00000000
  18         0.00003166
  19         0.00202048
  20        -0.00153179
  21        -0.00000000
  22         0.00000000
  23         0.00000000
  24         0.00000000
  25        -0.00000000
  26         0.00000000
  27         0.00000000
  28        -0.00000000
  29         0.29052296
  30        -0.00211078
  31         0.00000000
  32        -0.00003166
  33        -0.00202048
  34        -0.00153179
  35         0.00000000
  36        -0.00000000
  37         0.00000000
  38         0.00000000
  39         0.00000000
  40        -0.00000000
  41         0.00000000
  42        -0.00000000
  43         0.00067163
  44         0.00000000
  45         0.00000000
  46        -0.00000000
  47         0.00000000
  48         0.00067163
  49         0.00000000
  50        -0.00000000
  51         0.00000000
  52         0.00000000
  53         0.00060449
  54        -0.00000000
  55        -0.00000000
  56         0.00000000
  57         0.00000000
  58         0.00060449
  59        -0.00000000
  60         0.00000000
  61        -0.00000000
  62         0.00000000
  63         0.00050248
  64         0.00000000
  65        -0.00000000
  66        -0.00000000
  67        -0.00000000
  68         0.00050248
  69         0.00000000
  70         0.00000000
  71         0.00000000
  72        -0.00000000
Sym=     3a  
Ene=    -1.7038
Spin= Alpha
Occup=    2.00000
   1        -0.04375494
   2         0.28283088
   3         0.00000000
   4         0.00000000
   5         0.00000000
   6        -0.09423372
   7         0.00000000
   8         0.00000000
   9        -0.00000000
  10         0.00000000
  11         0.00000000
  12         0.00000000
  13        -0.00000000
  14        -0.00000000
  15        -0.05468360
  16         0.29377846
  17        -0.00000000
  18         0.00343501
  19        -0.06429773
  20        -0.00040584
  21         0.00000000
  22         0.00000000
  23         0.00000000
  24        -0.00000000
  25        -0.00000000
  26        -0.00000000
  27         0.00000000
  28         0.00000000
  29        -0.05468360
  30         0.29377846
  31        -0.00000000
  32        -0.00343501
  33         0.06429773
  34        -0.00040584
  35        -0.00000000
  36        -0.00000000
  37         0.00000000
  38        -0.00000000
  39         0.00000000
  40         0.00000000
  41         0.00000000
  42         0.00000000
  43         0.14053458
  44         0.00000000
  45         0.00000000
  46         0.00000000
  47         0.00000000
  48         0.14053458
  49         0.00000000
  50        -0.00000000
  51        -0.00000000
  52         0.00000000
  53         0.10857482
  54         0.00000000
  55        -0.00000000
  56         0.00000000
  57        -0.00000000
  58         0.10857482
  59         0.00000000
  60         0.00000000
  61        -0.00000000
  62        -0.00000000
  63         0.13123141
  64        -0.00000000
  65         0.00000000
  66         0.00000000
  67        -0.00000000
  68         0.13123141
  69        -0.00000000
  70        -0.00000000
  71        -0.00000000
  72        -0.00000000
Sym=     4a  
Ene=    -0.8733
Spin= Alpha
Occup=    2.00000
   1         0.03161795
   2        -0.51001771
   3        -0.00000000
   4         0.00000000
   5         0.00000000
   6        -0.16803561
   7         0.00000000
   8         0.00000000
   9        -0.00000000
  10        -0.00000000
  11         0.00000000
  12         0.00000000
  13        -0.00000000
  14         0.00000000
  15        -0.00897403
  16         0.04691163
  17        -0.00000000
  18        -0.00920335
  19         0.09803833
  20        -0.31049681
  21         0.00000000
  22         0.00000000
  23         0.00000000
  24        -0.00000000
  25        -0.00000000
  26        -0.00000000
  27        -0.00000000
  28         0.00000000
  29        -0.00897403
  30         0.04691163
  31        -0.00000000
  32         0.00920335
  33        -0.09803833
  34        -0.31049681
  35        -0.00000000
  36        -0.00000000
  37         0.00000000
  38        -0.00000000
  39         0.00000000
  40         0.00000000
  41        -0.00000000
  42         0.00000000
  43         0.22864051
  44         0.00000000
  45         0.00000000
  46         0.00000000
  47         0.00000000
  48         0.22864051
  49         0.00000000
  50        -0.00000000
  51        -0.00000000
  52         0.00000000
  53        -0.01746478
  54        -0.00000000
  55        -0.00000000
  56        -0.00000000
  57        -0.00000000
  58        -0.01746478
  59        -0.00000000
  60         0.00000000
  61         0.00000000
  62        -0.00000000
  63         0.06067797
  64        -0.00000000
  65         0.00000000
  66         0.00000000
  67        -0.00000000
  68         0.06067797
  69        -0.00000000
  70        -0.00000000
  71        -0.00000000
  72        -0.00000000
Sym=     5a  
Ene=    -0.7817
Spin= Alpha
Occup=    2.00000
   1         0.02043993
   2        -0.19834682
   3        -0.00000000
   4         0.00000000
   5         0.00000000
   6         0.18313008
   7         0.00000000
   8         0.00000000
   9        -0.00000000
  10         0.00000000
  11         0.00000000
  12         0.00000000
  13         0.00000000
  14        -0.00000000
  15        -0.00466018
  16         0.10088094
  17         0.00000000
  18        -0.00929748
  19         0.36011190
  20         0.12669539
  21        -0.00000000
  22        -0.00000000
  23        -0.00000000
  24         0.00000000
  25         0.00000000
  26        -0.00000000
  27         0.00000000
  28         0.00000000
  29        -0.00466018
  30         0.10088094
  31         0.00000000
  32         0.00929748
  33        -0.36011190
  34         0.12669539
  35         0.00000000
  36         0.00000000
  37        -0.00000000
  38         0.00000000
  39        -0.00000000
  40         0.00000000
  41         0.00000000
  42         0.00000000
  43        -0.06541687
  44        -0.00000000
  45        -0.00000000
  46         0.00000000
  47        -0.00000000
  48        -0.06541687
  49        -0.00000000
  50         0.00000000
  51        -0.00000000
  52        -0.00000000
  53         0.31957547
  54         0.00000000
  55         0.00000000
  56         0.00000000
  57        -0.00000000
  58         0.31957547
  59         0.00000000
  60        -0.00000000
  61        -0.00000000
  62        -0.00000000
  63         0.07358196
  64         0.00000000
  65        -0.00000000
  66         0.00000000
  67         0.00000000
  68         0.07358196
  69         0.00000000
  70         0.00000000
  71        -0.00000000
  72         0.00000000
Sym=     6a  
Ene=    -0.6182
Spin= Alpha
Occup=    2.00000
   1         0.00120872
   2        -0.08200621
   3        -0.00000000
   4         0.00000000
   5         0.00000000
   6        -0.00817289
   7         0.00000000
   8         0.00000000
   9         0.00000000
  10         0.00000000
  11         0.00000000
  12         0.00000000
  13         0.00000000
  14        -0.00000000
  15        -0.00140250
  16        -0.01360259
  17         0.00000000
  18         0.43452821
  19         0.01970251
  20        -0.00111769
  21         0.00000000
  22        -0.00000000
  23         0.00000000
  24         0.00000000
  25        -0.00000000
  26        -0.00000000
  27        -0.00000000
  28         0.00000000
  29        -0.00140250
  30        -0.01360259
  31         0.00000000
  32        -0.43452821
  33        -0.01970251
  34        -0.00111769
  35        -0.00000000
  36         0.00000000
  37         0.00000000
  38         0.00000000
  39         0.00000000
  40         0.00000000
  41        -0.00000000
  42         0.00000000
  43        -0.16468460
  44         0.00000000
  45         0.00000000
  46         0.00000000
  47         0.00000000
  48        -0.16468460
  49         0.00000000
  50        -0.00000000
  51        -0.00000000
  52         0.00000000
  53        -0.14104117
  54         0.00000000
  55         0.00000000
  56        -0.00000000
  57        -0.00000000
  58        -0.14104117
  59         0.00000000
  60        -0.00000000
  61         0.00000000
  62        -0.00000000
  63         0.36946940
  64        -0.00000000
  65         0.00000000
  66         0.00000000
  67         0.00000000
  68         0.36946940
  69        -0.00000000
  70        -0.00000000
  71        -0.00000000
  72         0.00000000
Sym=     7a  
Ene=    -0.3914
Spin= Alpha
Occup=    2.00000
   1         0.03418252
   2         0.41305382
   3        -0.00000000
   4         0.00000000
   5         0.00000000
   6         0.84809645
   7         0.00000000
   8         0.00000000
   9         0.00000000
  10        -0.00000000
  11         0.00000000
  12         0.00000000
  13         0.00000000
  14         0.00000000
  15         0.00725743
  16        -0.09338370
  17        -0.00000000
  18         0.03481971
  19         0.08533506
  20        -0.22999274
  21         0.00000000
  22        -0.00000000
  23         0.00000000
  24        -0.00000000
  25         0.00000000
  26        -0.00000000
  27         0.00000000
  28         0.00000000
  29         0.00725743
  30        -0.09338370
  31        -0.00000000
  32        -0.03481971
  33        -0.08533506
  34        -0.22999274
  35        -0.00000000
  36         0.00000000
  37         0.00000000
  38        -0.00000000
  39        -0.00000000
  40         0.00000000
  41         0.00000000
  42         0.00000000
  43         0.26453032
  44         0.00000000
  45         0.00000000
  46         0.00000000
  47         0.00000000
  48         0.26453032
  49         0.00000000
  50        -0.00000000
  51        -0.00000000
  52         0.00000000
  53        -0.13104021
  54         0.00000000
  55         0.00000000
  56        -0.00000000
  57        -0.00000000
  58        -0.13104021
  59         0.00000000
  60        -0.00000000
  61         0.00000000
  62        -0.00000000
  63         0.05517728
  64        -0.00000000
  65        -0.00000000
  66         0.00000000
  67         0.00000000
  68         0.05517728
  69        -0.00000000
  70         0.00000000
  71        -0.00000000
  72         0.00000000
Sym=     8a  
Ene=    -0.1408
Spin= Alpha
Occup=    0.00000
   1        -0.13263627
   2        -1.18118030
   3         0.00000000
   4         0.00000000
   5         0.00000000
   6         0.56659461
   7         0.00000000
   8         0.00000000
   9        -0.00000000
  10        -0.00000000
  11         0.00000000
  12         0.00000000
  13        -0.00000000
  14        -0.00000000
  15         0.00994290
  16         0.11747322
  17        -0.00000000
  18        -0.35447752
  19        -0.51440122
  20         0.54002538
  21         0.00000000
  22        -0.00000000
  23         0.00000000
  24        -0.00000000
  25        -0.00000000
  26        -0.00000000
  27         0.00000000
  28         0.00000000
  29         0.00994290
  30         0.11747322
  31        -0.00000000
  32         0.35447752
  33         0.51440122
  34         0.54002538
  35        -0.00000000
  36         0.00000000
  37         0.00000000
  38        -0.00000000
  39         0.00000000
  40         0.00000000
  41         0.00000000
  42         0.00000000
  43         0.24398266
  44         0.00000000
  45         0.00000000
  46         0.00000000
  47         0.00000000
  48         0.24398266
  49         0.00000000
  50        -0.00000000
  51        -0.00000000
  52         0.00000000
  53        -0.12088271
  54         0.00000000
  55        -0.00000000
  56        -0.00000000
  57        -0.00000000
  58        -0.12088271
  59         0.00000000
  60         0.00000000
  61         0.00000000
  62        -0.00000000
  63         0.48977921
  64        -0.00000000
  65         0.00000000
  66         0.00000000
  67        -0.00000000
  68         0.48977921
  69        -0.00000000
  70        -0.00000000
  71        -0.00000000
  72        -0.00000000
Sym=     9a  
Ene=    -0.1289
Spin= Alpha
Occup=    0.00000
   1        -0.00872762
   2        -0.00429860
   3         0.00000000
   4         0.00000000
   5         0.00000000
   6        -0.09088826
   7         0.00000000
   8         0.00000000
   9        -0.00000000
  10        -0.00000000
  11         0.00000000
  12         0.00000000
  13        -0.00000000
  14        -0.00000000
  15        -0.10603762
  16        -0.92698606
  17        -0.00000000
  18         0.44754045
  19        -0.37799508
  20         0.09846957
  21         0.00000000
  22        -0.00000000
  23        -0.00000000
  24         0.00000000
  25         0.00000000
  26        -0.00000000
  27         0.00000000
  28         0.00000000
  29        -0.10603762
  30        -0.92698606
  31        -0.00000000
  32        -0.44754045
  33         0.37799508
  34         0.09846957
  35        -0.00000000
  36         0.00000000
  37        -0.00000000
  38         0.00000000
  39        -0.00000000
  40         0.00000000
  41         0.00000000
  42         0.00000000
  43         0.52362889
  44        -0.00000000
  45         0.00000000
  46         0.00000000
  47         0.00000000
  48         0.52362889
  49        -0.00000000
  50        -0.00000000
  51        -0.00000000
  52         0.00000000
  53         0.80566806
  54         0.00000000
  55         0.00000000
  56        -0.00000000
  57        -0.00000000
  58         0.80566806
  59         0.00000000
  60        -0.00000000
  61         0.00000000
  62        -0.00000000
  63        -0.05940536
  64        -0.00000000
  65        -0.00000000
  66         0.00000000
  67         0.00000000
  68        -0.05940536
  69        -0.00000000
  70         0.00000000
  71        -0.00000000
  72         0.00000000
Sym=    10a  
Ene=    -0.1266
Spin= Alpha
Occup=    0.00000
   1         0.06016498
   2         0.50513442
   3         0.00000000
   4         0.00000000
   5         0.00000000
   6        -0.19342904
   7         0.00000000
   8         0.00000000
   9        -0.00000000
  10        -0.00000000
  11         0.00000000
  12         0.00000000
  13        -0.00000000
  14         0.00000000
  15        -0.07393965
  16        -0.66888882
  17        -0.00000000
  18        -0.66070242
  19        -0.02974037
  20        -0.38126153
  21        -0.00000000
  22         0.00000000
  23         0.00000000
  24         0.00000000
  25         0.00000000
  26         0.00000000
  27        -0.00000000
  28        -0.00000000
  29        -0.07393965
  30        -0.66888882
  31        -0.00000000
  32         0.66070242
  33         0.02974037
  34        -0.38126153
  35         0.00000000
  36        -0.00000000
  37         0.00000000
  38         0.00000000
  39        -0.00000000
  40        -0.00000000
  41        -0.00000000
  42        -0.00000000
  43        -0.40191001
  44         0.00000000
  45         0.00000000
  46        -0.00000000
  47         0.00000000
  48        -0.40191001
  49         0.00000000
  50        -0.00000000
  51         0.00000000
  52         0.00000000
  53         0.23449486
  54        -0.00000000
  55         0.00000000
  56        -0.00000000
  57        -0.00000000
  58         0.23449486
  59        -0.00000000
  60        -0.00000000
  61         0.00000000
  62        -0.00000000
  63         0.81383531
  64         0.00000000
  65        -0.00000000
  66        -0.00000000
  67         0.00000000
  68         0.81383531
  69         0.00000000
  70         0.00000000
  71         0.00000000
  72         0.00000000
Sym=    11a  
Ene=    -0.1156
Spin= Alpha
Occup=    0.00000
   1         0.05469457
   2         0.48446533
   3         0.00000000
   4         0.00000000
   5         0.00000000
   6        -0.56989027
   7         0.00000000
   8         0.00000000
   9         0.00000000
  10        -0.00000000
  11         0.00000000
  12         0.00000000
  13        -0.00000000
  14         0.00000000
  15        -0.06190495
  16        -0.51534053
  17        -0.00000000
  18        -0.12910497
  19         0.60508585
  20         0.58741072
  21        -0.00000000
  22        -0.00000000
  23        -0.00000000
  24         0.00000000
  25         0.00000000
  26        -0.00000000
  27         0.00000000
  28         0.00000000
  29        -0.06190495
  30        -0.51534053
  31        -0.00000000
  32         0.12910497
  33        -0.60508585
  34         0.58741072
  35         0.00000000
  36         0.00000000
  37        -0.00000000
  38         0.00000000
  39        -0.00000000
  40         0.00000000
  41         0.00000000
  42         0.00000000
  43         0.70205848
  44        -0.00000000
  45        -0.00000000
  46         0.00000000
  47        -0.00000000
  48         0.70205848
  49        -0.00000000
  50         0.00000000
  51        -0.00000000
  52        -0.00000000
  53        -0.55861261
  54         0.00000000
  55         0.00000000
  56        -0.00000000
  57        -0.00000000
  58        -0.55861261
  59         0.00000000
  60        -0.00000000
  61         0.00000000
  62        -0.00000000
  63         0.25445548
  64         0.00000000
  65        -0.00000000
  66         0.00000000
  67         0.00000000
  68         0.25445548
  69         0.00000000
  70         0.00000000
  71        -0.00000000
  72         0.00000000
Sym=    12a  
Ene=     3.5129
Spin= Alpha
Occup=    0.00000
   1        -0.17302137
   2        -1.20696481
   3        -0.64838891
   4         0.00000000
   5         0.00000000
   6         0.35945970
   7         0.00000000
   8         0.00000000
   9         0.55208786
  10        -0.04015233
  11         0.00000000
  12         0.00000000
  13         0.06531791
  14         0.11441461
  15        -0.05667772
  16        -0.34862067
  17        -0.19611762
  18        -1.14530034
  19        -0.38783302
  20         0.04745534
  21        -1.30705121
  22        -0.43908185
  23         0.06302622
  24         0.04324847
  25         0.04724744
  26        -0.04640679
  27        -0.16980445
  28        -0.01954978