[Molden Format]
[N_Atoms]
 9
[Atoms] (AU)
C1          1      6           0.00000000      0.00000000      1.20198714
C2          2      6           0.03690551      2.33010375     -0.40069747
C2          3      6          -0.03690551     -2.33010375     -0.40069747
H1          4      1          -0.83223093      2.13055899     -2.26667298
H1          5      1           0.83223093     -2.13055899     -2.26667298
H2          6      1          -0.70796995      3.97965892      0.57720096
H2          7      1           0.70796995     -3.97965892      0.57720096
H3          8      1           2.06711549      2.65853858     -0.69541935
H3          9      1          -2.06711549     -2.65853858     -0.69541935
[5D]
[Charge] (Mulliken)
 -0.142533270871017
 -0.151820190009039
 -0.151820190009039
 4.764279587563536E-002
 4.764279587563536E-002
 0.179045567103365
 0.179045567103365
 6.766509790088349E-002
 6.766509790088349E-002
[GTO] (AU)
   1
   s  10
  5.240635300E+03  9.370599866E-04
  7.822047900E+02  7.228659896E-03
  1.783508300E+02  3.634369948E-02
  5.081594200E+01  1.306288781E-01
  1.682356200E+01  3.188985054E-01
  6.175776000E+00  4.390794037E-01
  2.418049000E+00  2.144773669E-01
  5.119000000E-01  9.529119863E-03
  1.565900000E-01 -2.422299965E-03
  5.480600000E-02  8.592699877E-04
   s  10
  5.240635300E+03 -2.013999970E-04
  7.822047900E+02 -1.591299976E-03
  1.783508300E+02 -7.857899883E-03
  5.081594200E+01 -3.078559954E-02
  1.682356200E+01 -7.776049884E-02
  6.175776000E+00 -1.654797975E-01
  2.418049000E+00 -9.353159860E-02
  5.119000000E-01  5.910679012E-01
  1.565900000E-01  5.101798424E-01
  5.480600000E-02  3.602094946E-02
   s  10
  5.240635300E+03  1.894800270E-04
  7.822047900E+02  1.599170228E-03
  1.783508300E+02  7.158711020E-03
  5.081594200E+01  3.255102464E-02
  1.682356200E+01  6.671215950E-02
  6.175776000E+00  2.107147000E-01
  2.418049000E+00  1.606341229E-02
  5.119000000E-01 -1.206081172E+00
  1.565900000E-01  6.235919888E-01
  5.480600000E-02  6.755538762E-01
   p   6
  1.884180000E+01  1.363248000E-02
  4.159240000E+00  8.381052999E-02
  1.206710000E+00  2.857919499E-01
  3.855400000E-01  4.864161999E-01
  1.219400000E-01  3.147641699E-01
  4.267900000E-02  9.093436998E-02
   p   6
  1.884180000E+01 -1.270119972E-02
  4.159240000E+00 -6.726639849E-02
  1.206710000E+00 -3.404230924E-01
  3.855400000E-01 -3.747774916E-01
  1.219400000E-01  4.228405505E-01
  4.267900000E-02  6.428391056E-01
   d   3
  1.283800000E+00  3.208788489E-01
  3.440000000E-01  7.233137275E-01
  9.220000000E-02  1.572138094E-01
 
   2
   s  10
  5.240635300E+03  9.370599866E-04
  7.822047900E+02  7.228659896E-03
  1.783508300E+02  3.634369948E-02
  5.081594200E+01  1.306288781E-01
  1.682356200E+01  3.188985054E-01
  6.175776000E+00  4.390794037E-01
  2.418049000E+00  2.144773669E-01
  5.119000000E-01  9.529119863E-03
  1.565900000E-01 -2.422299965E-03
  5.480600000E-02  8.592699877E-04
   s  10
  5.240635300E+03 -2.013999970E-04
  7.822047900E+02 -1.591299976E-03
  1.783508300E+02 -7.857899883E-03
  5.081594200E+01 -3.078559954E-02
  1.682356200E+01 -7.776049884E-02
  6.175776000E+00 -1.654797975E-01
  2.418049000E+00 -9.353159860E-02
  5.119000000E-01  5.910679012E-01
  1.565900000E-01  5.101798424E-01
  5.480600000E-02  3.602094946E-02
   s  10
  5.240635300E+03  1.894800270E-04
  7.822047900E+02  1.599170228E-03
  1.783508300E+02  7.158711020E-03
  5.081594200E+01  3.255102464E-02
  1.682356200E+01  6.671215950E-02
  6.175776000E+00  2.107147000E-01
  2.418049000E+00  1.606341229E-02
  5.119000000E-01 -1.206081172E+00
  1.565900000E-01  6.235919888E-01
  5.480600000E-02  6.755538762E-01
   p   6
  1.884180000E+01  1.363248000E-02
  4.159240000E+00  8.381052999E-02
  1.206710000E+00  2.857919499E-01
  3.855400000E-01  4.864161999E-01
  1.219400000E-01  3.147641699E-01
  4.267900000E-02  9.093436998E-02
   p   6
  1.884180000E+01 -1.270119972E-02
  4.159240000E+00 -6.726639849E-02
  1.206710000E+00 -3.404230924E-01
  3.855400000E-01 -3.747774916E-01
  1.219400000E-01  4.228405505E-01
  4.267900000E-02  6.428391056E-01
   d   3
  1.283800000E+00  3.208788489E-01
  3.440000000E-01  7.233137275E-01
  9.220000000E-02  1.572138094E-01
 
   3
   s  10
  5.240635300E+03  9.370599866E-04
  7.822047900E+02  7.228659896E-03
  1.783508300E+02  3.634369948E-02
  5.081594200E+01  1.306288781E-01
  1.682356200E+01  3.188985054E-01
  6.175776000E+00  4.390794037E-01
  2.418049000E+00  2.144773669E-01
  5.119000000E-01  9.529119863E-03
  1.565900000E-01 -2.422299965E-03
  5.480600000E-02  8.592699877E-04
   s  10
  5.240635300E+03 -2.013999970E-04
  7.822047900E+02 -1.591299976E-03
  1.783508300E+02 -7.857899883E-03
  5.081594200E+01 -3.078559954E-02
  1.682356200E+01 -7.776049884E-02
  6.175776000E+00 -1.654797975E-01
  2.418049000E+00 -9.353159860E-02
  5.119000000E-01  5.910679012E-01
  1.565900000E-01  5.101798424E-01
  5.480600000E-02  3.602094946E-02
   s  10
  5.240635300E+03  1.894800270E-04
  7.822047900E+02  1.599170228E-03
  1.783508300E+02  7.158711020E-03
  5.081594200E+01  3.255102464E-02
  1.682356200E+01  6.671215950E-02
  6.175776000E+00  2.107147000E-01
  2.418049000E+00  1.606341229E-02
  5.119000000E-01 -1.206081172E+00
  1.565900000E-01  6.235919888E-01
  5.480600000E-02  6.755538762E-01
   p   6
  1.884180000E+01  1.363248000E-02
  4.159240000E+00  8.381052999E-02
  1.206710000E+00  2.857919499E-01
  3.855400000E-01  4.864161999E-01
  1.219400000E-01  3.147641699E-01
  4.267900000E-02  9.093436998E-02
   p   6
  1.884180000E+01 -1.270119972E-02
  4.159240000E+00 -6.726639849E-02
  1.206710000E+00 -3.404230924E-01
  3.855400000E-01 -3.747774916E-01
  1.219400000E-01  4.228405505E-01
  4.267900000E-02  6.428391056E-01
   d   3
  1.283800000E+00  3.208788489E-01
  3.440000000E-01  7.233137275E-01
  9.220000000E-02  1.572138094E-01
 
   4
   s   7
  8.263637400E+01  2.564129993E-03
  1.240955800E+01  1.921260995E-02
  2.823854000E+00  9.505117973E-02
  7.976700000E-01  3.018678192E-01
  2.580530000E-01  4.874459186E-01
  8.989100000E-02  2.354794293E-01
  3.146200000E-02  1.577775996E-02
   s   7
  8.263637400E+01 -4.600800043E-03
  1.240955800E+01 -3.244470030E-02
  2.823854000E+00 -1.710737016E-01
  7.976700000E-01 -5.048672047E-01
  2.580530000E-01 -9.489200089E-02
  8.989100000E-02  3.708555135E-01
  3.146200000E-02  6.556513461E-01
   p   3
  1.662500000E+00  3.012770601E-01
  4.156000000E-01  6.800574203E-01
  1.039000000E-01  1.985626501E-01
 
   5
   s   7
  8.263637400E+01  2.564129993E-03
  1.240955800E+01  1.921260995E-02
  2.823854000E+00  9.505117973E-02
  7.976700000E-01  3.018678192E-01
  2.580530000E-01  4.874459186E-01
  8.989100000E-02  2.354794293E-01
  3.146200000E-02  1.577775996E-02
   s   7
  8.263637400E+01 -4.600800043E-03
  1.240955800E+01 -3.244470030E-02
  2.823854000E+00 -1.710737016E-01
  7.976700000E-01 -5.048672047E-01
  2.580530000E-01 -9.489200089E-02
  8.989100000E-02  3.708555135E-01
  3.146200000E-02  6.556513461E-01
   p   3
  1.662500000E+00  3.012770601E-01
  4.156000000E-01  6.800574203E-01
  1.039000000E-01  1.985626501E-01
 
   6
   s   7
  8.263637400E+01  2.564129993E-03
  1.240955800E+01  1.921260995E-02
  2.823854000E+00  9.505117973E-02
  7.976700000E-01  3.018678192E-01
  2.580530000E-01  4.874459186E-01
  8.989100000E-02  2.354794293E-01
  3.146200000E-02  1.577775996E-02
   s   7
  8.263637400E+01 -4.600800043E-03
  1.240955800E+01 -3.244470030E-02
  2.823854000E+00 -1.710737016E-01
  7.976700000E-01 -5.048672047E-01
  2.580530000E-01 -9.489200089E-02
  8.989100000E-02  3.708555135E-01
  3.146200000E-02  6.556513461E-01
   p   3
  1.662500000E+00  3.012770601E-01
  4.156000000E-01  6.800574203E-01
  1.039000000E-01  1.985626501E-01
 
   7
   s   7
  8.263637400E+01  2.564129993E-03
  1.240955800E+01  1.921260995E-02
  2.823854000E+00  9.505117973E-02
  7.976700000E-01  3.018678192E-01
  2.580530000E-01  4.874459186E-01
  8.989100000E-02  2.354794293E-01
  3.146200000E-02  1.577775996E-02
   s   7
  8.263637400E+01 -4.600800043E-03
  1.240955800E+01 -3.244470030E-02
  2.823854000E+00 -1.710737016E-01
  7.976700000E-01 -5.048672047E-01
  2.580530000E-01 -9.489200089E-02
  8.989100000E-02  3.708555135E-01
  3.146200000E-02  6.556513461E-01
   p   3
  1.662500000E+00  3.012770601E-01
  4.156000000E-01  6.800574203E-01
  1.039000000E-01  1.985626501E-01
 
   8
   s   7
  8.263637400E+01  2.564129993E-03
  1.240955800E+01  1.921260995E-02
  2.823854000E+00  9.505117973E-02
  7.976700000E-01  3.018678192E-01
  2.580530000E-01  4.874459186E-01
  8.989100000E-02  2.354794293E-01
  3.146200000E-02  1.577775996E-02
   s   7
  8.263637400E+01 -4.600800043E-03
  1.240955800E+01 -3.244470030E-02
  2.823854000E+00 -1.710737016E-01
  7.976700000E-01 -5.048672047E-01
  2.580530000E-01 -9.489200089E-02
  8.989100000E-02  3.708555135E-01
  3.146200000E-02  6.556513461E-01
   p   3
  1.662500000E+00  3.012770601E-01
  4.156000000E-01  6.800574203E-01
  1.039000000E-01  1.985626501E-01
 
   9
   s   7
  8.263637400E+01  2.564129993E-03
  1.240955800E+01  1.921260995E-02
  2.823854000E+00  9.505117973E-02
  7.976700000E-01  3.018678192E-01
  2.580530000E-01  4.874459186E-01
  8.989100000E-02  2.354794293E-01
  3.146200000E-02  1.577775996E-02
   s   7
  8.263637400E+01 -4.600800043E-03
  1.240955800E+01 -3.244470030E-02
  2.823854000E+00 -1.710737016E-01
  7.976700000E-01 -5.048672047E-01
  2.580530000E-01 -9.489200089E-02
  8.989100000E-02  3.708555135E-01
  3.146200000E-02  6.556513461E-01
   p   3
  1.662500000E+00  3.012770601E-01
  4.156000000E-01  6.800574203E-01
  1.039000000E-01  1.985626501E-01
 
[MO]
Sym=     1a  
Ene=   -11.2650
Spin= Alpha
Occup=    0.00000
   1         1.00020563
   2         0.00295651
   3         0.00014844
   4         0.00000000
   5         0.00000000
   6        -0.00160572
   7         0.00000000
   8         0.00000000
   9         0.00114461
  10         0.00049247
  11         0.00000000
  12         0.00000000
  13        -0.00074107
  14         0.00001898
  15         0.01033719
  16        -0.00082126
  17        -0.00046103
  18        -0.00042027
  19         0.00049405
  20        -0.00040419
  21        -0.00037597
  22         0.00025088
  23        -0.00031380
  24         0.00016965
  25        -0.00001719
  26         0.00019976
  27         0.00037486
  28         0.00002932
  29         0.01033719
  30        -0.00082126
  31        -0.00046103
  32         0.00042027
  33        -0.00049405
  34        -0.00040419
  35         0.00037597
  36        -0.00025088
  37        -0.00031380
  38         0.00016965
  39         0.00001719
  40        -0.00019976
  41         0.00037486
  42         0.00002932
  43        -0.00015102
  44        -0.00011383
  45         0.00000011
  46        -0.00009711
  47         0.00001385
  48        -0.00015102
  49        -0.00011383
  50        -0.00000011
  51         0.00009711
  52         0.00001385
  53        -0.00009538
  54        -0.00026754
  55         0.00007258
  56         0.00002601
  57        -0.00006382
  58        -0.00009538
  59        -0.00026754
  60        -0.00007258
  61        -0.00002601
  62        -0.00006382
  63         0.00068138
  64         0.00042709
  65        -0.00003170
  66        -0.00009409
  67         0.00008925
  68         0.00068138
  69         0.00042709
  70         0.00003170
  71         0.00009409
  72         0.00008925
Sym=     2a  
Ene=   -11.2310
Spin= Alpha
Occup=    0.00000
   1        -0.01478140
   2         0.00151250
   3         0.00062083
   4         0.00000000
   5         0.00000000
   6        -0.00045568
   7         0.00000000
   8         0.00000000
   9        -0.00024598
  10        -0.00003007
  11         0.00000000
  12         0.00000000
  13         0.00010535
  14        -0.00005635
  15         0.70685315
  16         0.00021106
  17        -0.00181861
  18         0.00021284
  19         0.00014729
  20        -0.00003184
  21        -0.00000836
  22         0.00004976
  23         0.00006993
  24        -0.00004708
  25         0.00000470
  26         0.00002307
  27         0.00000265
  28        -0.00002534
  29         0.70685315
  30         0.00021106
  31        -0.00181861
  32        -0.00021284
  33        -0.00014729
  34        -0.00003184
  35         0.00000836
  36        -0.00004976
  37         0.00006993
  38        -0.00004708
  39        -0.00000470
  40        -0.00002307
  41         0.00000265
  42        -0.00002534
  43         0.00073114
  44         0.00021266
  45        -0.00004699
  46        -0.00005668
  47        -0.00007534
  48         0.00073114
  49         0.00021266
  50         0.00004699
  51         0.00005668
  52        -0.00007534
  53         0.00059551
  54         0.00015424
  55        -0.00004744
  56         0.00007816
  57         0.00005558
  58         0.00059551
  59         0.00015424
  60         0.00004744
  61        -0.00007816
  62         0.00005558
  63         0.00035083
  64         0.00005096
  65         0.00018007
  66         0.00004641
  67        -0.00005699
  68         0.00035083
  69         0.00005096
  70        -0.00018007
  71        -0.00004641
  72        -0.00005699
Sym=     3a  
Ene=    -1.0630
Spin= Alpha
Occup=    0.00000
   1        -0.03088113
   2         0.40904076
   3        -0.02232550
   4         0.00000000
   5         0.00000000
   6        -0.11822740
   7         0.00000000
   8         0.00000000
   9         0.04914760
  10         0.00556474
  11         0.00000000
  12         0.00000000
  13        -0.02171761
  14         0.00026271
  15        -0.05311383
  16         0.27240585
  17        -0.07238482
  18        -0.00751131
  19        -0.07250502
  20         0.02638800
  21        -0.01484223
  22         0.02041110
  23        -0.01300924
  24        -0.00412687
  25         0.00077063
  26        -0.01128054
  27        -0.00871353
  28         0.00006868
  29        -0.05311383
  30         0.27240585
  31        -0.07238482
  32         0.00751131
  33         0.07250502
  34         0.02638800
  35         0.01484223
  36        -0.02041110
  37        -0.01300924
  38        -0.00412687
  39        -0.00077063
  40         0.01128054
  41        -0.00871353
  42         0.00006868
  43         0.11621649
  44        -0.01209412
  45         0.00681328
  46        -0.00045703
  47         0.01434929
  48         0.11621649
  49        -0.01209412
  50        -0.00681328
  51         0.00045703
  52         0.01434929
  53         0.09949498
  54        -0.01486502
  55         0.00544490
  56        -0.01212587
  57        -0.00543506
  58         0.09949498
  59        -0.01486502
  60        -0.00544490
  61         0.01212587
  62        -0.00543506
  63         0.14165949
  64         0.00076856
  65        -0.01672059
  66        -0.00480132
  67         0.00358598
  68         0.14165949
  69         0.00076856
  70         0.01672059
  71         0.00480132
  72         0.00358598
Sym=     4a  
Ene=    -0.7274
Spin= Alpha
Occup=    0.00000
   1         0.02548394
   2        -0.53659606
   3         0.00930641
   4         0.00000000
   5         0.00000000
   6         0.04703241
   7         0.00000000
   8         0.00000000
   9        -0.02409909
  10        -0.00365127
  11         0.00000000
  12         0.00000000
  13         0.01248340
  14        -0.00047316
  15        -0.01912882
  16         0.14964650
  17        -0.02392759
  18        -0.00380253
  19         0.23696560
  20        -0.15587436
  21        -0.00194120
  22        -0.05440645
  23         0.04080907
  24         0.00438360
  25         0.00144884
  26         0.02667819
  27         0.01552766
  28        -0.00184993
  29        -0.01912882
  30         0.14964650
  31        -0.02392759
  32         0.00380253
  33        -0.23696560
  34        -0.15587436
  35         0.00194120
  36         0.05440645
  37         0.04080907
  38         0.00438360
  39        -0.00144884
  40        -0.02667819
  41         0.01552766
  42        -0.00184993
  43         0.17953692
  44        -0.01434371
  45         0.00839738
  46         0.00577632
  47         0.01383142
  48         0.17953692
  49        -0.01434371
  50        -0.00839738
  51        -0.00577632
  52         0.01383142
  53         0.15948624
  54        -0.01865368
  55         0.00634472
  56        -0.00942431
  57        -0.01181746
  58         0.15948624
  59        -0.01865368
  60        -0.00634472
  61         0.00942431
  62        -0.01181746
  63         0.13454756
  64        -0.00725681
  65        -0.01436323
  66         0.00157149
  67        -0.00134017
  68         0.13454756
  69        -0.00725681
  70         0.01436323
  71        -0.00157149
  72        -0.00134017
Sym=     5a  
Ene=    -0.6093
Spin= Alpha
Occup=    0.00000
   1         0.00158951
   2         0.11971098
   3         0.00073945
   4         0.00000000
   5         0.00000000
   6         0.19464123
   7         0.00000000
   8         0.00000000
   9        -0.02242211
  10        -0.02469158
  11         0.00000000
  12         0.00000000
  13        -0.00635770
  14         0.00122829
  15         0.00002996
  16         0.02768204
  17         0.00086463
  18         0.00745771
  19         0.24241263
  20         0.29278395
  21        -0.00574113
  22        -0.03904591
  23        -0.04093358
  24        -0.01258631
  25        -0.01630750
  26         0.00743939
  27        -0.00610982
  28        -0.01013884
  29         0.00002996
  30         0.02768204
  31         0.00086463
  32        -0.00745771
  33        -0.24241263
  34         0.29278395
  35         0.00574113
  36         0.03904591
  37        -0.04093358
  38        -0.01258631
  39         0.01630750
  40        -0.00743939
  41        -0.00610982
  42        -0.01013884
  43        -0.21287556
  44         0.03489428
  45        -0.00765719
  46         0.00406288
  47        -0.01100023
  48        -0.21287556
  49         0.03489428
  50         0.00765719
  51        -0.00406288
  52        -0.01100023
  53         0.24261605
  54        -0.04533493
  55         0.00860366
  56        -0.01207358
  57        -0.00649055
  58         0.24261605
  59        -0.04533493
  60        -0.00860366
  61         0.01207358
  62        -0.00649055
  63         0.02367126
  64         0.00197867
  65        -0.00152656
  66         0.00490106
  67         0.00676189
  68         0.02367126
  69         0.00197867
  70         0.00152656
  71        -0.00490106
  72         0.00676189
Sym=     6a  
Ene=    -0.5492
Spin= Alpha
Occup=    0.00000
   1        -0.00078938
   2        -0.08137224
   3        -0.00411439
   4         0.00000000
   5         0.00000000
   6        -0.00425660
   7         0.00000000
   8         0.00000000
   9         0.00041253
  10        -0.00117503
  11         0.00000000
  12         0.00000000
  13         0.00393141
  14         0.02311079
  15        -0.00106073
  16        -0.01634369
  17        -0.00193256
  18         0.41317010
  19        -0.01641986
  20        -0.00317858
  21        -0.05307870
  22        -0.00194521
  23        -0.00043206
  24        -0.01816199
  25        -0.00780176
  26        -0.00832759
  27         0.02486823
  28         0.00771456
  29        -0.00106073
  30        -0.01634369
  31        -0.00193256
  32        -0.41317010
  33         0.01641986
  34        -0.00317858
  35         0.05307870
  36         0.00194521
  37        -0.00043206
  38        -0.01816199
  39         0.00780176
  40         0.00832759
  41         0.02486823
  42         0.00771456
  43        -0.15036558
  44         0.01683641
  45         0.00412713
  46        -0.00091199
  47        -0.01139795
  48        -0.15036558
  49         0.01683641
  50        -0.00412713
  51         0.00091199
  52        -0.01139795
  53        -0.13117228
  54         0.02278035
  55         0.00548382
  56         0.00881124
  57         0.00585873
  58        -0.13117228
  59         0.02278035
  60        -0.00548382
  61        -0.00881124
  62         0.00585873
  63         0.33824586
  64        -0.04042730
  65        -0.01847049
  66        -0.00658402
  67         0.00469432
  68         0.33824586
  69        -0.04042730
  70         0.01847049
  71         0.00658402
  72         0.00469432
Sym=     7a  
Ene=    -0.3381
Spin= Alpha
Occup=    0.00000
   1         0.03084808
   2         0.52021177
   3         0.08407169
   4         0.00000000
   5         0.00000000
   6         0.78796091
   7         0.00000000
   8         0.00000000
   9         0.02271362
  10        -0.02383490
  11         0.00000000
  12         0.00000000
  13         0.02134553
  14         0.00268646
  15        -0.00157857
  16        -0.12228494
  17         0.00189873
  18         0.02335369
  19         0.08482751
  20        -0.21051912
  21         0.00095024
  22        -0.03107537
  23         0.00556139
  24         0.02920802
  25         0.00832254
  26        -0.00611596
  27         0.02101995
  28         0.00448692
  29        -0.00157857
  30        -0.12228494
  31         0.00189873
  32        -0.02335369
  33        -0.08482751
  34        -0.21051912
  35        -0.00095024
  36         0.03107537
  37         0.00556139
  38         0.02920802
  39        -0.00832254
  40         0.00611596
  41         0.02101995
  42         0.00448692
  43         0.20827400
  44         0.02136343
  45         0.00417756
  46         0.00454560
  47         0.00060641
  48         0.20827400
  49         0.02136343
  50        -0.00417756
  51        -0.00454560
  52         0.00060641
  53        -0.11512459
  54         0.00133909
  55        -0.00139929
  56         0.00654800
  57        -0.00231356
  58        -0.11512459
  59         0.00133909
  60         0.00139929
  61        -0.00654800
  62        -0.00231356
  63         0.05378943
  64         0.01347641
  65        -0.00031207
  66         0.00307611
  67        -0.00476809
  68         0.05378943
  69         0.01347641
  70         0.00031207
  71        -0.00307611
  72        -0.00476809
Sym=     8a  
Ene=     0.1190
Spin= Alpha
Occup=    0.00000
   1         0.00035151
   2        -0.08287590
   3        -0.02766752
   4         0.00000000
   5         0.00000000
   6        -0.25142893
   7         0.00000000
   8         0.00000000
   9        -0.07983281
  10        -0.00070343
  11         0.00000000
  12         0.00000000
  13         0.00157663
  14         0.00188018
  15        -0.17352961
  16        -1.22808165
  17        -0.49659775
  18        -0.20663082
  19        -0.18376048
  20         0.18015636
  21        -0.16456122
  22        -0.05352802
  23         0.05062994
  24        -0.00871217
  25        -0.00337822
  26        -0.00506394
  27        -0.01797950
  28         0.00024281
  29        -0.17352961
  30        -1.22808165
  31        -0.49659775
  32         0.20663082
  33         0.18376048
  34         0.18015636
  35         0.16456122
  36         0.05352802
  37         0.05062994
  38        -0.00871217
  39         0.00337822
  40         0.00506394
  41        -0.01797950
  42         0.00024281
  43         0.33302502
  44         0.28290843
  45         0.00699658
  46        -0.00422536
  47         0.01568667
  48         0.33302502
  49         0.28290843
  50        -0.00699658
  51         0.00422536
  52         0.01568667
  53         0.41181911
  54         0.27710636
  55         0.00725359
  56        -0.01568965
  57        -0.00347801
  58         0.41181911
  59         0.27710636
  60        -0.00725359
  61         0.01568965
  62        -0.00347801
  63         0.64175570
  64         0.43706113
  65        -0.02377282
  66        -0.01238868
  67         0.00799355
  68         0.64175570
  69         0.43706113
  70         0.02377282
  71         0.01238868
  72         0.00799355
Sym=     9a  
Ene=     0.1942
Spin= Alpha
Occup=    0.00000
   1        -0.26637798
   2        -1.85387455
   3        -0.73822494
   4         0.00000000
   5         0.00000000
   6         0.34831681
   7         0.00000000
   8         0.00000000
   9         0.38646661
  10         0.01700930
  11         0.00000000
  12         0.00000000
  13         0.04766234
  14         0.00332064
  15         0.04081172
  16         0.30546994
  17         0.12023149
  18        -0.26948687
  19        -0.61278371
  20         0.37046916
  21        -0.21937599
  22        -0.56286721
  23         0.50254048
  24        -0.00865649
  25         0.00147212
  26         0.00226840
  27        -0.01339099
  28        -0.00427197
  29         0.04081172
  30         0.30546994
  31         0.12023149
  32         0.26948687
  33         0.61278371
  34         0.37046916
  35         0.21937599
  36         0.56286721
  37         0.50254048
  38        -0.00865649
  39        -0.00147212
  40        -0.00226840
  41        -0.01339099
  42        -0.00427197
  43         0.03661013
  44        -0.04437479
  45         0.01259253
  46         0.00670653
  47         0.01479662
  48         0.03661013
  49        -0.04437479
  50        -0.01259253
  51        -0.00670653
  52         0.01479662
  53         0.06017152
  54         0.04219169
  55        -0.00074619
  56         0.01131554
  57        -0.01588294
  58         0.06017152
  59         0.04219169
  60         0.00074619
  61        -0.01131554
  62        -0.01588294
  63         0.43401014
  64         0.22285637
  65        -0.02030087
  66        -0.00156939
  67        -0.01084904
  68         0.43401014
  69         0.22285637
  70         0.02030087
  71         0.00156939
  72        -0.01084904
Sym=    10a  
Ene=     0.2613
Spin= Alpha
Occup=    0.00000
   1        -0.01973021
   2        -0.14285195
   3        -0.10324361
   4         0.00000000
   5         0.00000000
   6        -0.10636413
   7         0.00000000
   8         0.00000000
   9         0.16312877
  10         0.06286703
  11         0.00000000
  12         0.00000000
  13        -0.00037502
  14        -0.03549295
  15         0.00632720
  16         0.02552458
  17         0.02971804
  18         1.13287500
  19         0.04839330
  20         0.24803063
  21         1.10144193
  22         0.25425963
  23         0.36684628
  24        -0.04834847
  25        -0.02411108
  26         0.00237143
  27        -0.01755999
  28         0.01535289
  29         0.00632720
  30         0.02552458
  31         0.02971804
  32        -1.13287500
  33        -0.04839330
  34         0.24803063
  35        -1.10144193
  36        -0.25425963
  37         0.36684628
  38        -0.04834847
  39         0.02411108
  40        -0.00237143
  41        -0.01755999
  42         0.01535289
  43         0.95202928
  44         0.49984891
  45         0.02113946
  46        -0.02259623
  47         0.05543629
  48         0.95202928
  49         0.49984891
  50        -0.02113946
  51         0.02259623
  52         0.05543629
  53         0.40330671
  54         0.30639330
  55        -0.01685069
  56         0.00611745
  57        -0.00194578
  58         0.40330671
  59         0.30639330
  60         0.01685069
  61        -0.00611745
  62        -0.00194578
  63        -1.25418579
  64        -0.64091239
  65         0.04120261
  66         0.01479954
  67        -0.02491742
  68        -1.25418579
  69        -0.64091239
  70        -0.04120261
  71        -0.01479954
  72        -0.02491742
Sym=    11a  
Ene=     0.2789
Spin= Alpha
Occup=    0.00000
   1         0.11862603
   2         0.83726835
   3         0.32689163
   4         0.00000000
   5         0.00000000
   6        -0.42114491
   7         0.00000000
   8         0.00000000
   9        -0.35092148
  10         0.06400188
  11         0.00000000
  12         0.00000000
  13         0.06223139
  14         0.02868337
  15        -0.01279181
  16        -0.08274744
  17        -0.00494629
  18        -0.75845164
  19         0.53515456
  20        -0.08468620
  21        -0.75477575
  22         0.67747014
  23         0.30297043
  24        -0.00728920
  25         0.00085964
  26        -0.00499761
  27        -0.04426246
  28        -0.01898798
  29        -0.01279181
  30        -0.08274744
  31        -0.00494629
  32         0.75845164
  33        -0.53515456
  34        -0.08468620
  35         0.75477575
  36        -0.67747014
  37         0.30297043
  38        -0.00728920
  39        -0.00085964
  40         0.00499761
  41        -0.04426246
  42        -0.01898798
  43        -0.37657676
  44        -0.27491093
  45         0.02620201
  46        -0.00119269
  47         0.02259707
  48        -0.37657676
  49        -0.27491093
  50        -0.02620201
  51         0.00119269
  52         0.02259707
  53        -0.67852642
  54        -0.23437733
  55        -0.02514347
  56         0.06522881
  57        -0.00219298
  58        -0.67852642
  59        -0.23437733
  60         0.02514347
  61        -0.06522881
  62        -0.00219298
  63         0.81956298
  64         0.45264672
  65        -0.03774561
  66        -0.03045749
  67        -0.01813660
  68         0.81956298
  69         0.45264672
  70         0.03774561
  71         0.03045749
  72        -0.01813660
Sym=    12a  
Ene=     0.3287
Spin= Alpha
Occup=    0.00000
   1         0.01604996
   2         0.15084031
   3         0.10346164
   4         0.00000000
   5         0.00000000
   6        -0.47969798
   7         0.00000000
   8         0.00000000
   9        -0.61316306
  10         0.00079286
  11         0.00000000
  12         0.00000000
  13         0.01955933
  14        -0.07983671
  15        -0.03090907
  16        -0.15758541
  17        -0.05444260
  18        -0.14977202
  19         0.38322315
  20         0.51439246
  21         0.42567341
  22         0.26870735
  23         0.49584855
  24        -0.01731776
  25        -0.01109523
  26        -0.00635438