INFO:    gocryptfs not found, will not be able to use gocryptfs
INFO:    gocryptfs not found, will not be able to use gocryptfs
INFO:    gocryptfs not found, will not be able to use gocryptfs
   This run of MOLCAS is using the pymolcas driver
   This run of MOLCAS is using the pymolcas driver

                             OPE
                             OPE          NMOL  CASOP  ENMOLC A   SO
                 OPE        NMOLC        AS  OP EN  MO LC     AS  OP
                OPENM       OL CA        SO  PE NM  OL CA     SOP EN
                OP EN      MO   LC       AS  OP ENMOL  CASO   PENMOL
                OP  EN     MO   LC       AS  OP EN     MO     LC ASO
               OP   E  NMOL  C  AS       OP  EN MO     LC     AS  OP
               OP  E   NMO   LC AS        OPEN  MO     LCASOP EN   M
               O  PEN   MO  LCA  SO
            OPE   NMO   L   CAS    OP
        OPENMOL  CASOP     ENMOL   CASOPE
     OPENMOLCA   SOPENMOLCASOPEN   MOLCASOPE
    OPENMOLCAS   OP           EN   MOL    CAS
    OPENMOLCAS       OP  ENM        O     LCA
    OPENMOLCAS    OPEN  MOLCASO     P  E  NMO
    OPENMOLCAS     OP               E  N  MOL
    OPENMOLCA   SO           PENM   O  L  CAS    OPEN    MO    LCAS
    OPENMOLCA   SOP           ENM   O  L  CAS   OP  EN  MOLC  AS   O
    OPENMOLCA   SOPE           NM      O  LCA   S      OP  EN MO
    OPENMOLC                AS         O  PEN   M      OL  CA  SOPE
    OPENMO        LCASOPE  NMOL        C  ASO   P      ENMOLC     AS
    OPE     NMO      LCA  SO     P     E   NM   OL  CA SO  PE N   MO
          OPENMOLCA            SOPE   NMO        LCAS  O    P  ENMO
     OPENMOLCASOPENMOLCASOPENMOLCASOPENMOLCA
        OPENMOLCASOPENMOLCASOPENMOLCASOPE
            OPENMOLCASOPENMOLCASOPENM
               OPENMOLCASOPENMOLCA        version: v25.02 ?
                   OPENMOLCASO
                       OPE                tag:

 OpenMolcas is free software; you can redistribute it and/or modify it
 under the terms of the GNU Lesser General Public License version 2.1.
 OpenMolcas is distributed in the hope that it will be useful, but it
 is provided "as is" and without any express or implied warranties.
 For more details see the full text of the license in the file
 LICENSE or in <http://www.gnu.org/licenses/>.

                 Copyright (C) The OpenMolcas Authors
           For the author list and the recommended citation,
                   consult the file CONTRIBUTORS.md

           *************************************************
           * pymolcas version py2.29                       *
           *   build c0481229b6f3f65ed2c83878be511d3d      *
           *   (after the EMIL interpreter by V. Veryazov) *
           *************************************************

configuration info
------------------
Host name: bcb11747ffd6 (Linux)
C Compiler ID: IntelLLVM
C flags: -std=gnu99 -qopenmp
Fortran Compiler ID: IntelLLVM
Fortran flags: -standard-semantics -fltconsistency -fpp -i8 -heap-arrays -qopenmp
Definitions: _MOLCAS_;_I8_;_LINUX_;_MOLCAS_MPP_;_SCALAPACK_;_GA_
Parallel: ON (GA=ON)


   -----------------------------------------------------------------------
  |
  |           Project: dimethylcarben
  |    Submitted from: /home/charlie/input_examples/molcas/dimethylcarbene
  |      Scratch area: /home/charlie/molcastmp/dimethylcarben
  |   Save outputs to: /home/charlie/input_examples/molcas/dimethylcarbene
  |            Molcas: /apps/openmolcas
  |
  | Scratch area is NOT empty
  |
  |    MOLCAS_DRIVER = /apps/openmolcas/pymolcas
  |    MOLCAS_NPROCS = 1
  |    MOLCAS_SOURCE = /apps/openmolcas
  | MOLCAS_STRUCTURE = 0
  |
   -----------------------------------------------------------------------

++ ---------   Input file   ---------

>>> EXPORT MOLCAS_MEM = 5000

&SEWARD
Title
 Dimethylcarbene singlet C2-sym
 CASSCF(ANO-VDZP) opt geometry
Symmetry
 XY
Basis set
C.ANO-S...3s2p1d.
C1              .0000000000         .0000000000        1.2019871414
C2              .0369055124        2.3301037548        -.4006974719
End of basis
Basis set
H.ANO-S...2s1p.
H1             -.8322309260        2.1305589948       -2.2666729831
H2             -.7079699536        3.9796589218         .5772009623
H3             2.0671154914        2.6585385786        -.6954193494
End of basis
PkThrs
 1.0E-10
End of input

&SCF
Title
Dmc
Occupied
7 5
End of input

&RASSCF
Title
Dmc
Symmetry
 1
Spin
 1
Nactel
 2  0  0
Inactive
 6  5
Ras2
 1  1
Thrs
1.0E-05,1.0E-03,1.0E-03
Iteration
50,25
LumOrb
End of input

&CASPT2
Title
Dmc
LRoot
1
Frozen
 2  1
End of input

&MOTRA
Title
Dmc
Frozen
 2  1
JobIph
End of input

&GUGA
Title
Dmc
Electrons
18
Spin
 1
Inactive
 4  4
Active
 1  1
Ciall
 1
Print
 5
End of input

&MRCI
Title
Dimethylcarbene
SDCI
End of input

&MRCI
Title
Dimethylcarbene
ACPF
End of input

&RASSCF
Title
Dmc
Symmetry
 1
Spin
 1
Nactel
 0  0  0
Inactive
 7  5
Ras2
 0  0
Thrs
1.0E-05,1.0E-03,1.0E-03
Iteration
50,25
LumOrb
OutOrbitals
 Canonical
End of input

&MOTRA
Title
Dmc
Frozen
 2  1
JobIph
End of input

&CCSDT
Title
 Dmc
CCT
Iterations
 40
Triples
 2
End of input

-- ----------------------------------

>>> EXPORT MOLCAS_MEM = 5000

                             OPE
                             OPE          NMOL  CASOP  ENMOLC A   SO
                 OPE        NMOLC        AS  OP EN  MO LC     AS  OP
                OPENM       OL CA        SO  PE NM  OL CA     SOP EN
                OP EN      MO   LC       AS  OP ENMOL  CASO   PENMOL
                OP  EN     MO   LC       AS  OP EN     MO     LC ASO
               OP   E  NMOL  C  AS       OP  EN MO     LC     AS  OP
               OP  E   NMO   LC AS        OPEN  MO     LCASOP EN   M
               O  PEN   MO  LCA  SO
            OPE   NMO   L   CAS    OP
        OPENMOL  CASOP     ENMOL   CASOPE
     OPENMOLCA   SOPENMOLCASOPEN   MOLCASOPE
    OPENMOLCAS   OP           EN   MOL    CAS
    OPENMOLCAS       OP  ENM        O     LCA
    OPENMOLCAS    OPEN  MOLCASO     P  E  NMO
    OPENMOLCAS     OP               E  N  MOL
    OPENMOLCA   SO           PENM   O  L  CAS    OPEN    MO    LCAS
    OPENMOLCA   SOP           ENM   O  L  CAS   OP  EN  MOLC  AS   O
    OPENMOLCA   SOPE           NM      O  LCA   S      OP  EN MO
    OPENMOLC                AS         O  PEN   M      OL  CA  SOPE
    OPENMO        LCASOPE  NMOL        C  ASO   P      ENMOLC     AS
    OPE     NMO      LCA  SO     P     E   NM   OL  CA SO  PE N   MO
          OPENMOLCA            SOPE   NMO        LCAS  O    P  ENMO
     OPENMOLCASOPENMOLCASOPENMOLCASOPENMOLCA
        OPENMOLCASOPENMOLCASOPENMOLCASOPE
            OPENMOLCASOPENMOLCASOPENM
               OPENMOLCASOPENMOLCA        version: v25.02 ?
                   OPENMOLCASO
                       OPE                tag:

 OpenMolcas is free software; you can redistribute it and/or modify it
 under the terms of the GNU Lesser General Public License version 2.1.
 OpenMolcas is distributed in the hope that it will be useful, but it
 is provided "as is" and without any express or implied warranties.
 For more details see the full text of the license in the file
 LICENSE or in <http://www.gnu.org/licenses/>.

                 Copyright (C) The OpenMolcas Authors
           For the author list and the recommended citation,
                   consult the file CONTRIBUTORS.md

           *************************************************
           * pymolcas version py2.29                       *
           *   build c0481229b6f3f65ed2c83878be511d3d      *
           *   (after the EMIL interpreter by V. Veryazov) *
           *************************************************

configuration info
------------------
Host name: bcb11747ffd6 (Linux)
C Compiler ID: IntelLLVM
C flags: -std=gnu99 -qopenmp
Fortran Compiler ID: IntelLLVM
Fortran flags: -standard-semantics -fltconsistency -fpp -i8 -heap-arrays -qopenmp
Definitions: _MOLCAS_;_I8_;_LINUX_;_MOLCAS_MPP_;_SCALAPACK_;_GA_
Parallel: ON (GA=ON)


   -----------------------------------------------------------------------
  |
  |           Project: dimethylcarben
  |    Submitted from: /home/charlie/input_examples/molcas/dimethylcarbene
  |      Scratch area: /home/charlie/molcastmp/dimethylcarben
  |   Save outputs to: /home/charlie/input_examples/molcas/dimethylcarbene
  |            Molcas: /apps/openmolcas
  |
  | Scratch area is NOT empty
  |
  |    MOLCAS_DRIVER = /apps/openmolcas/pymolcas
  |    MOLCAS_NPROCS = 1
  |    MOLCAS_SOURCE = /apps/openmolcas
  | MOLCAS_STRUCTURE = 0
  |
   -----------------------------------------------------------------------

++ ---------   Input file   ---------

>>> EXPORT MOLCAS_MEM = 5000

&SEWARD
Title
 Dimethylcarbene singlet C2-sym
 CASSCF(ANO-VDZP) opt geometry
Symmetry
 XY
Basis set
C.ANO-S...3s2p1d.
C1              .0000000000         .0000000000        1.2019871414
C2              .0369055124        2.3301037548        -.4006974719
End of basis
Basis set
H.ANO-S...2s1p.
H1             -.8322309260        2.1305589948       -2.2666729831
H2             -.7079699536        3.9796589218         .5772009623
H3             2.0671154914        2.6585385786        -.6954193494
End of basis
PkThrs
 1.0E-10
End of input

&SCF
Title
Dmc
Occupied
7 5
End of input

&RASSCF
Title
Dmc
Symmetry
 1
Spin
 1
Nactel
 2  0  0
Inactive
 6  5
Ras2
 1  1
Thrs
1.0E-05,1.0E-03,1.0E-03
Iteration
50,25
LumOrb
End of input

&CASPT2
Title
Dmc
LRoot
1
Frozen
 2  1
End of input

&MOTRA
Title
Dmc
Frozen
 2  1
JobIph
End of input

&GUGA
Title
Dmc
Electrons
18
Spin
 1
Inactive
 4  4
Active
 1  1
Ciall
 1
Print
 5
End of input

&MRCI
Title
Dimethylcarbene
SDCI
End of input

&MRCI
Title
Dimethylcarbene
ACPF
End of input

&RASSCF
Title
Dmc
Symmetry
 1
Spin
 1
Nactel
 0  0  0
Inactive
 7  5
Ras2
 0  0
Thrs
1.0E-05,1.0E-03,1.0E-03
Iteration
50,25
LumOrb
OutOrbitals
 Canonical
End of input

&MOTRA
Title
Dmc
Frozen
 2  1
JobIph
End of input

&CCSDT
Title
 Dmc
CCT
Iterations
 40
Triples
 2
End of input

-- ----------------------------------

>>> EXPORT MOLCAS_MEM = 5000

*** symbolic link created: INPORB -> dimethylcarben.RasOrb
--- Start Module: seward at Sun Dec  7 11:09:25 2025 ---

--- Start Module: seward at Sun Dec  7 11:09:25 2025 ---
   This run of MOLCAS is using the pymolcas driver

                             OPE
                             OPE          NMOL  CASOP  ENMOLC A   SO
                 OPE        NMOLC        AS  OP EN  MO LC     AS  OP
                OPENM       OL CA        SO  PE NM  OL CA     SOP EN
                OP EN      MO   LC       AS  OP ENMOL  CASO   PENMOL
                OP  EN     MO   LC       AS  OP EN     MO     LC ASO
               OP   E  NMOL  C  AS       OP  EN MO     LC     AS  OP
               OP  E   NMO   LC AS        OPEN  MO     LCASOP EN   M
               O  PEN   MO  LCA  SO
            OPE   NMO   L   CAS    OP
        OPENMOL  CASOP     ENMOL   CASOPE
     OPENMOLCA   SOPENMOLCASOPEN   MOLCASOPE
    OPENMOLCAS   OP           EN   MOL    CAS
    OPENMOLCAS       OP  ENM        O     LCA
    OPENMOLCAS    OPEN  MOLCASO     P  E  NMO
    OPENMOLCAS     OP               E  N  MOL
    OPENMOLCA   SO           PENM   O  L  CAS    OPEN    MO    LCAS
    OPENMOLCA   SOP           ENM   O  L  CAS   OP  EN  MOLC  AS   O
    OPENMOLCA   SOPE           NM      O  LCA   S      OP  EN MO
    OPENMOLC                AS         O  PEN   M      OL  CA  SOPE
    OPENMO        LCASOPE  NMOL        C  ASO   P      ENMOLC     AS
    OPE     NMO      LCA  SO     P     E   NM   OL  CA SO  PE N   MO
          OPENMOLCA            SOPE   NMO        LCAS  O    P  ENMO
     OPENMOLCASOPENMOLCASOPENMOLCASOPENMOLCA
        OPENMOLCASOPENMOLCASOPENMOLCASOPE
            OPENMOLCASOPENMOLCASOPENM
               OPENMOLCASOPENMOLCA        version: v25.02 ?
                   OPENMOLCASO
                       OPE                tag:

 OpenMolcas is free software; you can redistribute it and/or modify it
 under the terms of the GNU Lesser General Public License version 2.1.
 OpenMolcas is distributed in the hope that it will be useful, but it
 is provided "as is" and without any express or implied warranties.
 For more details see the full text of the license in the file
 LICENSE or in <http://www.gnu.org/licenses/>.

                 Copyright (C) The OpenMolcas Authors
           For the author list and the recommended citation,
                   consult the file CONTRIBUTORS.md

           *************************************************
           * pymolcas version py2.29                       *
           *   build c0481229b6f3f65ed2c83878be511d3d      *
           *   (after the EMIL interpreter by V. Veryazov) *
           *************************************************

configuration info
------------------
Host name: bcb11747ffd6 (Linux)
C Compiler ID: IntelLLVM
C flags: -std=gnu99 -qopenmp
Fortran Compiler ID: IntelLLVM
Fortran flags: -standard-semantics -fltconsistency -fpp -i8 -heap-arrays -qopenmp
Definitions: _MOLCAS_;_I8_;_LINUX_;_MOLCAS_MPP_;_SCALAPACK_;_GA_
Parallel: ON (GA=ON)


   -----------------------------------------------------------------------
  |
  |           Project: dimethylcarben
  |    Submitted from: /home/charlie/input_examples/molcas/dimethylcarbene
  |      Scratch area: /home/charlie/molcastmp/dimethylcarben
  |   Save outputs to: /home/charlie/input_examples/molcas/dimethylcarbene
  |            Molcas: /apps/openmolcas
  |
  | Scratch area is NOT empty
  |
  |    MOLCAS_DRIVER = /apps/openmolcas/pymolcas
  |    MOLCAS_NPROCS = 1
  |    MOLCAS_SOURCE = /apps/openmolcas
  | MOLCAS_STRUCTURE = 0
  |
   -----------------------------------------------------------------------

++ ---------   Input file   ---------

>>> EXPORT MOLCAS_MEM = 5000

&SEWARD
Title
 Dimethylcarbene singlet C2-sym
 CASSCF(ANO-VDZP) opt geometry
Symmetry
 XY
Basis set
C.ANO-S...3s2p1d.
C1              .0000000000         .0000000000        1.2019871414
C2              .0369055124        2.3301037548        -.4006974719
End of basis
Basis set
H.ANO-S...2s1p.
H1             -.8322309260        2.1305589948       -2.2666729831
H2             -.7079699536        3.9796589218         .5772009623
H3             2.0671154914        2.6585385786        -.6954193494
End of basis
PkThrs
 1.0E-10
End of input

&SCF
Title
Dmc
Occupied
7 5
End of input

&RASSCF
Title
Dmc
Symmetry
 1
Spin
 1
Nactel
 2  0  0
Inactive
 6  5
Ras2
 1  1
Thrs
1.0E-05,1.0E-03,1.0E-03
Iteration
50,25
LumOrb
End of input

&CASPT2
Title
Dmc
LRoot
1
Frozen
 2  1
End of input

&MOTRA
Title
Dmc
Frozen
 2  1
JobIph
End of input

&GUGA
Title
Dmc
Electrons
18
Spin
 1
Inactive
 4  4
Active
 1  1
Ciall
 1
Print
 5
End of input

&MRCI
Title
Dimethylcarbene
SDCI
End of input

&MRCI
Title
Dimethylcarbene
ACPF
End of input

&RASSCF
Title
Dmc
Symmetry
 1
Spin
 1
Nactel
 0  0  0
Inactive
 7  5
Ras2
 0  0
Thrs
1.0E-05,1.0E-03,1.0E-03
Iteration
50,25
LumOrb
OutOrbitals
 Canonical
End of input

&MOTRA
Title
Dmc
Frozen
 2  1
JobIph
End of input

&CCSDT
Title
 Dmc
CCT
Iterations
 40
Triples
 2
End of input

-- ----------------------------------

>>> EXPORT MOLCAS_MEM = 5000

--- Start Module: seward at Sun Dec  7 11:09:25 2025 ---
 
()()()()()()()()()()()()()()()()()()()()()()()()()()()()()()()()()()()()()()()()()()()()()()()()()()

                                              &SEWARD

                       only a single process is used, running in SERIAL mode
 
()()()()()()()()()()()()()()()()()()()()()()()()()()()()()()()()()()()()()()()()()()()()()()()()()()

 
()()()()()()()()()()()()()()()()()()()()()()()()()()()()()()()()()()()()()()()()()()()()()()()()()()

                                              &SEWARD

                       only a single process is used, running in SERIAL mode
                                              &SEWARD

                       only a single process is used, running in SERIAL mode
                       available to each process: 5.0 GB of memory, 1 thread
                                            pid: 3105512
()()()()()()()()()()()()()()()()()()()()()()()()()()()()()()()()()()()()()()()()()()()()()()()()()()
 
                       available to each process: 5.0 GB of memory, 1 thread
                                            pid: 3105517
()()()()()()()()()()()()()()()()()()()()()()()()()()()()()()()()()()()()()()()()()()()()()()()()()()
 
                       available to each process: 5.0 GB of memory, 1 thread
                                            pid: 3105511
()()()()()()()()()()()()()()()()()()()()()()()()()()()()()()()()()()()()()()()()()()()()()()()()()()
 
               SEWARD will generate:
                  Multipole Moment integrals up to order  2
                  Kinetic Energy integrals
                  Nuclear Attraction integrals (point charge)
                  One-Electron Hamiltonian integrals
                  Velocity integrals
                  Orbital angular momentum around ( 0.0000  0.0000 -0.0000 )
                  Velocity quadrupole around ( 0.0000  0.0000 -0.0000 )
                  Two-Electron Repulsion integrals
               SEWARD will generate:
                  Multipole Moment integrals up to order  2
                  Kinetic Energy integrals
                  Nuclear Attraction integrals (point charge)
                  One-Electron Hamiltonian integrals
                  Velocity integrals
                  Orbital angular momentum around ( 0.0000  0.0000 -0.0000 )
                  Velocity quadrupole around ( 0.0000  0.0000 -0.0000 )
                  Two-Electron Repulsion integrals
               SEWARD will generate:
                  Multipole Moment integrals up to order  2
                  Kinetic Energy integrals
                  Nuclear Attraction integrals (point charge)
                  One-Electron Hamiltonian integrals
                  Velocity integrals
                  Orbital angular momentum around ( 0.0000  0.0000 -0.0000 )
                  Velocity quadrupole around ( 0.0000  0.0000 -0.0000 )
                  Two-Electron Repulsion integrals
 
 Title:
                                 Dimethylcarbene singlet C2-sym                         
                                 CASSCF(ANO-VDZP) opt geometry                          
 
 
                   Integrals are discarded if absolute value <: 1.00E-14
                   Integral cutoff threshold is set to       <: 1.00E-16
 
++    Symmetry information:
      ---------------------
 
                    --- Group Generators ---
                    Rotation around the z-axis  
 
                    Character Table for C2 
 
                             E   C2(z)
                    a        1     1  xy, Rz, z, I
                    b        1    -1  x, y, xz, Ry, yz, Rx
--
 
 
                    Unitary symmetry adaptation
 
 
++    Basis set information:
      ----------------------
 
 
      Basis set label: C.ANO-S...3S2P1D......
 
      Electronic valence basis set:
      ------------------
      Associated Effective Charge   6.000000 au
      Associated Actual Charge      6.000000 au
      Nuclear Model: Point charge
 
      Shell  nPrim  nBasis  Cartesian Spherical Contaminant
         s      10       3        X                  
         p       6       2        X                  
         d       3       1                 X         
 
 
      Basis set label: H.ANO-S...2S1P......
 
      Electronic valence basis set:
      ------------------
      Associated Effective Charge   1.000000 au
      Associated Actual Charge      1.000000 au
      Nuclear Model: Point charge
 
      Shell  nPrim  nBasis  Cartesian Spherical Contaminant
         s       7       2        X                  
         p       3       1        X                  
--
 
 
++    Molecular structure info:
      -------------------------
 
                    ************************************************ 
                    **** Cartesian Coordinates / bohr, angstrom **** 
                    ************************************************ 
 
     Center  Label                x              y              z                     x              y              z
        1      C1               0.000000       0.000000       1.201987              0.000000       0.000000       0.636064
        2      C2               0.036906       2.330104      -0.400697              0.019530       1.233038      -0.212040
        3      C2              -0.036906      -2.330104      -0.400697             -0.019530      -1.233038      -0.212040
        4      H1              -0.832231       2.130559      -2.266673             -0.440398       1.127443      -1.199472
        5      H1               0.832231      -2.130559      -2.266673              0.440398      -1.127443      -1.199472
        6      H2              -0.707970       3.979659       0.577201             -0.374642       2.105945       0.305442
        7      H2               0.707970      -3.979659       0.577201              0.374642      -2.105945       0.305442
        8      H3               2.067115       2.658539      -0.695419              1.093870       1.406838      -0.368000
        9      H3              -2.067115      -2.658539      -0.695419             -1.093870      -1.406838      -0.368000
 
 
                    *************************************** 
 Title:
                                 Dimethylcarbene singlet C2-sym                         
                    *    InterNuclear Distances / bohr    * 
                    *************************************** 
                                 CASSCF(ANO-VDZP) opt geometry                          
 
 
 
               1 C1            2 C2            3 C2            4 H1            5 H1            6 H2    
                   Integrals are discarded if absolute value <: 1.00E-14
                   Integral cutoff threshold is set to       <: 1.00E-16
 
++    Symmetry information:
    1 C1       0.000000
    2 C2       2.828311        0.000000
      ---------------------
 
                    --- Group Generators ---
    3 C2       2.828311        4.660792        0.000000
    4 H1       4.154936        2.068110        4.900196        0.000000
                    Rotation around the z-axis  
 
                    Character Table for C2 
    5 H1       4.154936        4.900196        2.068110        4.574665        0.000000
    6 H2       4.090142        2.057221        6.420258        3.394441        6.913364        0.000000
 
                             E   C2(z)
                    a        1     1  xy, Rz, z, I
                    b        1    -1  x, y, xz, Ry, yz, Rx
--
    7 H2       4.090142        6.420258        2.057221        6.913364        3.394441        8.084283
    8 H3       3.865352        2.077615        5.422206        3.339732        5.189338        3.326563
 
    9 H3       3.865352        5.422206        2.077615        5.189338        3.339732        6.894382
 
 
                    Unitary symmetry adaptation
 
 
++    Basis set information:
      ----------------------
 
 
      Basis set label: C.ANO-S...3S2P1D......
 
      Electronic valence basis set:
      ------------------
      Associated Effective Charge   6.000000 au
               7 H2            8 H3            9 H3    
      Associated Actual Charge      6.000000 au
      Nuclear Model: Point charge
 
      Shell  nPrim  nBasis  Cartesian Spherical Contaminant
         s      10       3        X                  
    7 H2       0.000000
    8 H3       6.894382        0.000000
         p       6       2        X                  
         d       3       1                 X         
 
    9 H3       3.326563        6.735219        0.000000
 
                    ******************************************* 
 
      Basis set label: H.ANO-S...2S1P......
 
                    *    InterNuclear Distances / angstrom    * 
                    ******************************************* 
      Electronic valence basis set:
      ------------------
      Associated Effective Charge   1.000000 au
 
               1 C1            2 C2            3 C2            4 H1            5 H1            6 H2    
      Associated Actual Charge      1.000000 au
      Nuclear Model: Point charge
 
    1 C1       0.000000
    2 C2       1.496678        0.000000
    3 C2       1.496678        2.466385        0.000000
    4 H1       2.198697        1.094397        2.593072        0.000000
      Shell  nPrim  nBasis  Cartesian Spherical Contaminant
         s       7       2        X                  
         p       3       1        X                  
--
    5 H1       2.198697        2.593072        1.094397        2.420808        0.000000
    6 H2       2.164410        1.088634        3.397454        1.796261        3.658395        0.000000
    7 H2       2.164410        3.397454        1.088634        3.658395        1.796261        4.278018
 
 
++    Molecular structure info:
    8 H3       2.045456        1.099426        2.869308        1.767310        2.746080        1.760341
    9 H3       2.045456        2.869308        1.099426        2.746080        1.767310        3.648350
 
      -------------------------
 
                    ************************************************ 
               7 H2            8 H3            9 H3    
    7 H2       0.000000
    8 H3       3.648350        0.000000
    9 H3       1.760341        3.564124        0.000000
                    **** Cartesian Coordinates / bohr, angstrom **** 
                    ************************************************ 
 
     Center  Label                x              y              z                     x              y              z
        1      C1               0.000000       0.000000       1.201987              0.000000       0.000000       0.636064
        2      C2               0.036906       2.330104      -0.400697              0.019530       1.233038      -0.212040
        3      C2              -0.036906      -2.330104      -0.400697             -0.019530      -1.233038      -0.212040
        4      H1              -0.832231       2.130559      -2.266673             -0.440398       1.127443      -1.199472
        5      H1               0.832231      -2.130559      -2.266673              0.440398      -1.127443      -1.199472
        6      H2              -0.707970       3.979659       0.577201             -0.374642       2.105945       0.305442
        7      H2               0.707970      -3.979659       0.577201              0.374642      -2.105945       0.305442
        8      H3               2.067115       2.658539      -0.695419              1.093870       1.406838      -0.368000
        9      H3              -2.067115      -2.658539      -0.695419             -1.093870      -1.406838      -0.368000
 
                    *************************************** 
                    *    InterNuclear Distances / bohr    * 
                    *************************************** 
 
               1 C1            2 C2            3 C2            4 H1            5 H1            6 H2    
    1 C1       0.000000
    2 C2       2.828311        0.000000
    3 C2       2.828311        4.660792        0.000000
    4 H1       4.154936        2.068110        4.900196        0.000000
    5 H1       4.154936        4.900196        2.068110        4.574665        0.000000
    6 H2       4.090142        2.057221        6.420258        3.394441        6.913364        0.000000
    7 H2       4.090142        6.420258        2.057221        6.913364        3.394441        8.084283
    8 H3       3.865352        2.077615        5.422206        3.339732        5.189338        3.326563
    9 H3       3.865352        5.422206        2.077615        5.189338        3.339732        6.894382
 
               7 H2            8 H3            9 H3    
    7 H2       0.000000
    8 H3       6.894382        0.000000
    9 H3       3.326563        6.735219        0.000000
 
                    ******************************************* 
                    *    InterNuclear Distances / angstrom    * 
                    ******************************************* 
 
               1 C1            2 C2            3 C2            4 H1            5 H1            6 H2    
    1 C1       0.000000
    2 C2       1.496678        0.000000
    3 C2       1.496678        2.466385        0.000000
    4 H1       2.198697        1.094397        2.593072        0.000000
    5 H1       2.198697        2.593072        1.094397        2.420808        0.000000
    6 H2       2.164410        1.088634        3.397454        1.796261        3.658395        0.000000
    7 H2       2.164410        3.397454        1.088634        3.658395        1.796261        4.278018
    8 H3       2.045456        1.099426        2.869308        1.767310        2.746080        1.760341
    9 H3       2.045456        2.869308        1.099426        2.746080        1.767310        3.648350
 
 
               7 H2            8 H3            9 H3    
    7 H2       0.000000
    8 H3       3.648350        0.000000
    9 H3       1.760341        3.564124        0.000000
 Title:
                                 Dimethylcarbene singlet C2-sym                         
                                 CASSCF(ANO-VDZP) opt geometry                          
 
 
                   Integrals are discarded if absolute value <: 1.00E-14
                   Integral cutoff threshold is set to       <: 1.00E-16
 
++    Symmetry information:
      ---------------------
 
                    --- Group Generators ---
                    Rotation around the z-axis  
 
                    Character Table for C2 
 
                             E   C2(z)
                    a        1     1  xy, Rz, z, I
                    b        1    -1  x, y, xz, Ry, yz, Rx
--
 
 
                    Unitary symmetry adaptation
 
 
++    Basis set information:
      ----------------------
 
 
      Basis set label: C.ANO-S...3S2P1D......
 
      Electronic valence basis set:
      ------------------
      Associated Effective Charge   6.000000 au
      Associated Actual Charge      6.000000 au
      Nuclear Model: Point charge
 
      Shell  nPrim  nBasis  Cartesian Spherical Contaminant
         s      10       3        X                  
         p       6       2        X                  
         d       3       1                 X         
 
 
      Basis set label: H.ANO-S...2S1P......
 
      Electronic valence basis set:
      ------------------
      Associated Effective Charge   1.000000 au
      Associated Actual Charge      1.000000 au
      Nuclear Model: Point charge
 
      Shell  nPrim  nBasis  Cartesian Spherical Contaminant
         s       7       2        X                  
         p       3       1        X                  
--
 
 
++    Molecular structure info:
      -------------------------
 
                    ************************************************ 
                    **** Cartesian Coordinates / bohr, angstrom **** 
                    ************************************************ 
 
     Center  Label                x              y              z                     x              y              z
        1      C1               0.000000       0.000000       1.201987              0.000000       0.000000       0.636064
        2      C2               0.036906       2.330104      -0.400697              0.019530       1.233038      -0.212040
        3      C2              -0.036906      -2.330104      -0.400697             -0.019530      -1.233038      -0.212040
        4      H1              -0.832231       2.130559      -2.266673             -0.440398       1.127443      -1.199472
        5      H1               0.832231      -2.130559      -2.266673              0.440398      -1.127443      -1.199472
        6      H2              -0.707970       3.979659       0.577201             -0.374642       2.105945       0.305442
        7      H2               0.707970      -3.979659       0.577201              0.374642      -2.105945       0.305442
        8      H3               2.067115       2.658539      -0.695419              1.093870       1.406838      -0.368000
        9      H3              -2.067115      -2.658539      -0.695419             -1.093870      -1.406838      -0.368000
 
                    *************************************** 
                    *    InterNuclear Distances / bohr    * 
                    *************************************** 
 
               1 C1            2 C2            3 C2            4 H1            5 H1            6 H2    
    1 C1       0.000000
    2 C2       2.828311        0.000000
    3 C2       2.828311        4.660792        0.000000
    4 H1       4.154936        2.068110        4.900196        0.000000
    5 H1       4.154936        4.900196        2.068110        4.574665        0.000000
    6 H2       4.090142        2.057221        6.420258        3.394441        6.913364        0.000000
    7 H2       4.090142        6.420258        2.057221        6.913364        3.394441        8.084283
    8 H3       3.865352        2.077615        5.422206        3.339732        5.189338        3.326563
    9 H3       3.865352        5.422206        2.077615        5.189338        3.339732        6.894382
 
               7 H2            8 H3            9 H3    
    7 H2       0.000000
    8 H3       6.894382        0.000000
    9 H3       3.326563        6.735219        0.000000
 
                    ******************************************* 
                    *    InterNuclear Distances / angstrom    * 
                    ******************************************* 
 
               1 C1            2 C2            3 C2            4 H1            5 H1            6 H2    
    1 C1       0.000000
    2 C2       1.496678        0.000000
    3 C2       1.496678        2.466385        0.000000
    4 H1       2.198697        1.094397        2.593072        0.000000
    5 H1       2.198697        2.593072        1.094397        2.420808        0.000000
    6 H2       2.164410        1.088634        3.397454        1.796261        3.658395        0.000000
    7 H2       2.164410        3.397454        1.088634        3.658395        1.796261        4.278018
    8 H3       2.045456        1.099426        2.869308        1.767310        2.746080        1.760341
    9 H3       2.045456        2.869308        1.099426        2.746080        1.767310        3.648350
 
               7 H2            8 H3            9 H3    
    7 H2       0.000000
    8 H3       3.648350        0.000000
    9 H3       1.760341        3.564124        0.000000
 
                    ************************************** 
                    *    Valence Bond Angles / degree    * 
                    ************************************** 
                          Atom centers                 Phi
                      2 C2       1 C1       3 C2       110.97
                      1 C1       2 C2       4 H1       115.23
                      1 C1       2 C2       6 H2       112.74
                      1 C1       2 C2       8 H3       102.91
                      4 H1       2 C2       6 H2       110.74
                      4 H1       2 C2       8 H3       107.33
                      6 H2       2 C2       8 H3       107.13
                      1 C1       3 C2       5 H1       115.23
                      1 C1       3 C2       7 H2       112.74
                      1 C1       3 C2       9 H3       102.91
 
                    ************************************** 
                    *    Valence Bond Angles / degree    * 
                    ************************************** 
                          Atom centers                 Phi
                      2 C2       1 C1       3 C2       110.97
                      1 C1       2 C2       4 H1       115.23
                      1 C1       2 C2       6 H2       112.74
                      1 C1       2 C2       8 H3       102.91
                      4 H1       2 C2       6 H2       110.74
                      4 H1       2 C2       8 H3       107.33
                      6 H2       2 C2       8 H3       107.13
                      1 C1       3 C2       5 H1       115.23
                      1 C1       3 C2       7 H2       112.74
                      1 C1       3 C2       9 H3       102.91
                      5 H1       3 C2       7 H2       110.74
                      5 H1       3 C2       9 H3       107.33
                      7 H2       3 C2       9 H3       107.13
 
           ***************************************************************
           *              Valence Dihedral Angles / degree               *
           ***************************************************************
                    Atom centers                       Phi1     Phi2     Theta 
           3 C2       1 C1       2 C2       4 H1        110.97   115.23    27.57
           3 C2       1 C1       2 C2       6 H2        110.97   112.74   156.03
           3 C2       1 C1       2 C2       8 H3        110.97   102.91   -88.91
           2 C2       1 C1       3 C2       5 H1        110.97   115.23    27.57
           2 C2       1 C1       3 C2       7 H2        110.97   112.74   156.03
           2 C2       1 C1       3 C2       9 H3        110.97   102.91   -88.91
--
 
 
                    ************************************** 
                    *    Valence Bond Angles / degree    * 
                    ************************************** 
                          Atom centers                 Phi
                      2 C2       1 C1       3 C2       110.97
                      1 C1       2 C2       4 H1       115.23
                      1 C1       2 C2       6 H2       112.74
                      5 H1       3 C2       7 H2       110.74
                      5 H1       3 C2       9 H3       107.33
                      7 H2       3 C2       9 H3       107.13
 
           ***************************************************************
           *              Valence Dihedral Angles / degree               *
           ***************************************************************
                    Atom centers                       Phi1     Phi2     Theta 
           3 C2       1 C1       2 C2       4 H1        110.97   115.23    27.57
                      1 C1       2 C2       8 H3       102.91
                      4 H1       2 C2       6 H2       110.74
                      4 H1       2 C2       8 H3       107.33
           3 C2       1 C1       2 C2       6 H2        110.97   112.74   156.03
                      6 H2       2 C2       8 H3       107.13
                      1 C1       3 C2       5 H1       115.23
           3 C2       1 C1       2 C2       8 H3        110.97   102.91   -88.91
           2 C2       1 C1       3 C2       5 H1        110.97   115.23    27.57
                      1 C1       3 C2       7 H2       112.74
                      1 C1       3 C2       9 H3       102.91
           2 C2       1 C1       3 C2       7 H2        110.97   112.74   156.03
           2 C2       1 C1       3 C2       9 H3        110.97   102.91   -88.91
                      5 H1       3 C2       7 H2       110.74
                      5 H1       3 C2       9 H3       107.33
--
 
                      7 H2       3 C2       9 H3       107.13
 
           ***************************************************************
           *              Valence Dihedral Angles / degree               *
           ***************************************************************
                    Atom centers                       Phi1     Phi2     Theta 
           3 C2       1 C1       2 C2       4 H1        110.97   115.23    27.57
           3 C2       1 C1       2 C2       6 H2        110.97   112.74   156.03
           3 C2       1 C1       2 C2       8 H3        110.97   102.91   -88.91
           2 C2       1 C1       3 C2       5 H1        110.97   115.23    27.57
           2 C2       1 C1       3 C2       7 H2        110.97   112.74   156.03
           2 C2       1 C1       3 C2       9 H3        110.97   102.91   -88.91
--
 
 
            Nuclear Potential Energy             69.29469486 au
 
 
            Nuclear Potential Energy             69.29469486 au
 
 
            Nuclear Potential Energy             69.29469486 au
 
 
      Basis set specifications :
      Symmetry species         a    b  
      Basis functions           37   35
 
 
      Basis set specifications :
      Symmetry species         a    b  
      Basis functions           37   35
 
 
      Basis set specifications :
      Symmetry species         a    b  
      Basis functions           37   35
 
 
      Input file to MOLDEN was generated!
 
forrtl: warning (528): IEEE_UNDERFLOW is signaling
--- Stop Module: seward at Sun Dec  7 11:09:27 2025 /rc=_RC_ALL_IS_WELL_ ---
*** files: dimethylcarben.GssOrb dimethylcarben.guessorb.molden xmldump
    saved to directory /home/charlie/input_examples/molcas/dimethylcarbene
--- Module seward spent 1 second ---

--- Start Module: scf at Sun Dec  7 11:09:27 2025 ---
 
()()()()()()()()()()()()()()()()()()()()()()()()()()()()()()()()()()()()()()()()()()()()()()()()()()

                                                &SCF

                       only a single process is used, running in SERIAL mode
                       available to each process: 5.0 GB of memory, 1 thread
                                            pid: 3105522
()()()()()()()()()()()()()()()()()()()()()()()()()()()()()()()()()()()()()()()()()()()()()()()()()()
 
++    Input section:
      --------------
 
      Header of the integral files:
                           Dimethylcarbene singlet C2-sym
       Integrals generated by Gateway/Seward, Sun Dec  7 11:09:25 2025
 
       Title:
        Dmc
 
      Cartesian coordinates in angstrom:
      -----------------------------------------------------
      No.  Label        X            Y            Z        
      -----------------------------------------------------
       1   C1         0.00000000   0.00000000   0.63606420
       2   C2         0.01952956   1.23303781  -0.21203997
       3   H1        -0.44039764   1.12744327  -1.19947169
       4   H2        -0.37464157   2.10594481   0.30544160
       5   H3         1.09387041   1.40683803  -0.36800007
       6   C2        -0.01952956  -1.23303781  -0.21203997
       7   H1         0.44039764  -1.12744327  -1.19947169
       8   H2         0.37464157  -2.10594481   0.30544160
       9   H3        -1.09387041  -1.40683803  -0.36800007
      -----------------------------------------------------
      Nuclear repulsion energy =   69.29469486
--
 
++    Orbital specifications:
      -----------------------
 
      Symmetry species               1   2
                                     a   b
      Frozen orbitals                0   0
      Occupied orbitals              7   5
      Secondary orbitals            30  30
      Deleted orbitals               0   0
      Total number of orbitals      37  35
      Number of basis functions     37  35
--
 
      Molecular charge                           0.000
 
++    Optimization specifications:
      ----------------------------
 
      SCF Algorithm: Conventional
      Minimized density differences are used
      Number of density matrices in core                 5
      Maximum number of NDDO SCF iterations            400
      Maximum number of HF SCF iterations              400
      Threshold for SCF energy change             1.00E-09
      Threshold for density matrix                1.00E-04
      Threshold for Fock matrix                   1.50E-04
      Threshold for linear dependence             1.00E-09
      Threshold at which DIIS is turned on        1.50E-01
      Maximum depth in the DIIS procedure                5
      Maximum depth in the BFGS Hessian update          30
      Threshold at which QNR/C2DIIS is turned on  7.50E-02
      Threshold for Norm(delta) (QNR/C2DIIS)      1.00E-03
      All orbitals punched on: SCFORB
--
 
      Detected old SCF orbitals                                                       
 
 
++ Convergence information
                                   SCF        iterations: Energy and convergence statistics
 
Iter     Tot. SCF        One-elec.       Two-elec.     Energy      Max Dij or  Max Fij      DNorm      TNorm      AccCon     Time
         Energy          Energy          Energy        Change      Delta Norm                                                in Sec.
   1  -117.001169985  -293.350431489   107.054566640   0.00E+00    1.25E-07    3.68E-08     6.17E+00   7.79E+01   None         0.
   2  -117.001169985  -293.350431721   107.054566872   2.84E-14*   1.20E-07    2.12E-09     8.22E-07   7.79E+01   EDIIS        0.
   3  -117.001169985  -293.350431718   107.054566869   0.00E+00    7.08E-08    1.97E-08     4.48E-07   7.79E+01   c2DIIS       0.
 
       Convergence after   3 Macro Iterations
--
 
 *****************************************************************************************************************************
 *                                                                                                                           *
 *                                             SCF/KS-DFT Program, Final results                                             *
 *                                                                                                                           *
 *                                                                                                                           *
 *                                                                                                                           *
 *                                                       Final Results                                                       *
 *                                                                                                                           *
 *****************************************************************************************************************************
 
::    Total SCF energy                               -117.0011699847
      One-electron energy                            -293.3504317184
      Two-electron energy                             107.0545668694
      Nuclear repulsion energy                         69.2946948643
      Kinetic energy (interpolated)                   117.0625408810
      Virial theorem                                    0.9994757427
      Total spin, S(S+1)                                0.0000000000
      Total spin, S                                     0.0000000000
      Max non-diagonal density matrix element           0.0000000708
      Max non-diagonal Fock matrix element              0.0000000197
 
 
      All orbitals with orbital energies smaller than  E(LUMO)+0.5 are printed
 
++    Molecular orbitals:
      -------------------
 
      Title: SCF orbitals

      Molecular orbitals for symmetry species 1: a  
 
          Orbital            1         2         3         4         5         6         7         8         9        10    
          Energy          -11.2654  -11.2310   -1.0631   -0.7274   -0.6094   -0.5492   -0.3381    0.1189    0.1942    0.2613
          Occ. No.          2.0000    2.0000    2.0000    2.0000    2.0000    2.0000    2.0000    0.0000    0.0000    0.0000
 
        1 C1     1s         1.0002   -0.0148   -0.0309    0.0255    0.0016   -0.0008    0.0307    0.0004   -0.2664   -0.0197
        2 C1     2s         0.0029    0.0015    0.4091   -0.5365    0.1197   -0.0814    0.5194   -0.0826   -1.8540   -0.1429
        3 C1     3s         0.0001    0.0006   -0.0223    0.0093    0.0008   -0.0041    0.0840   -0.0275   -0.7382   -0.1032
        4 C1     2pz       -0.0016   -0.0005   -0.1183    0.0471    0.1947   -0.0042    0.7883   -0.2516    0.3478   -0.1066
        5 C1     3pz        0.0011   -0.0002    0.0492   -0.0242   -0.0224    0.0004    0.0230   -0.0799    0.3862    0.1630
        6 C1     3d2-       0.0000   -0.0001    0.0003   -0.0005    0.0012    0.0231    0.0027    0.0019    0.0033   -0.0355
        7 C1     3d0        0.0005   -0.0000    0.0055   -0.0036   -0.0247   -0.0012   -0.0238   -0.0007    0.0170    0.0629
        8 C1     3d2+      -0.0007    0.0001   -0.0217    0.0125   -0.0064    0.0039    0.0212    0.0016    0.0477   -0.0003
        9 C2     1s         0.0146    0.9996   -0.0751   -0.0270    0.0001   -0.0015   -0.0022   -0.2454    0.0576    0.0089
       10 C2     2s        -0.0012    0.0003    0.3852    0.2116    0.0392   -0.0231   -0.1728   -1.7368    0.4316    0.0360
       11 C2     3s        -0.0006   -0.0026   -0.1024   -0.0339    0.0012   -0.0027    0.0027   -0.7023    0.1698    0.0420
       12 C2     2px       -0.0006    0.0003   -0.0106   -0.0054    0.0105    0.5843    0.0331   -0.2922   -0.3815    1.6016
       13 C2     3px       -0.0005   -0.0000   -0.0210   -0.0027   -0.0081   -0.0751    0.0014   -0.2327   -0.3106    1.5572
       14 C2     2py        0.0007    0.0002   -0.1025    0.3352    0.3428   -0.0232    0.1195   -0.2597   -0.8666    0.0686
       15 C2     3py        0.0004    0.0001    0.0289   -0.0770   -0.0552   -0.0028   -0.0441   -0.0755   -0.7960    0.3598
       16 C2     2pz       -0.0006   -0.0000    0.0373   -0.2205    0.4141   -0.0045   -0.2973    0.2547    0.5241    0.3508
       17 C2     3pz       -0.0004    0.0001   -0.0184    0.0577   -0.0579   -0.0006    0.0080    0.0715    0.7108    0.5191
       18 C2     3d2-       0.0000   -0.0000    0.0001   -0.0026   -0.0143    0.0109    0.0064    0.0003   -0.0061    0.0217
       19 C2     3d1-       0.0003    0.0000   -0.0160    0.0377    0.0105   -0.0118   -0.0086   -0.0072    0.0032    0.0034
       20 C2     3d0        0.0002   -0.0001   -0.0058    0.0062   -0.0178   -0.0257    0.0413   -0.0123   -0.0122   -0.0684
       21 C2     3d1+      -0.0000    0.0000    0.0011    0.0020   -0.0231   -0.0110    0.0118   -0.0048    0.0021   -0.0341
       22 C2     3d2+       0.0005    0.0000   -0.0123    0.0220   -0.0087    0.0352    0.0297   -0.0254   -0.0189   -0.0249
       23 H1     1s        -0.0002    0.0010    0.1644    0.2539   -0.3011   -0.2126    0.2949    0.4708    0.0515    1.3461
       24 H1     2s        -0.0002    0.0003   -0.0171   -0.0203    0.0493    0.0238    0.0305    0.4000   -0.0628    0.7067
       25 H1     2px        0.0000   -0.0001    0.0096    0.0119   -0.0108    0.0058    0.0059    0.0099    0.0178    0.0299
       26 H1     2py       -0.0001   -0.0001   -0.0006    0.0082    0.0057   -0.0013    0.0064   -0.0060    0.0095   -0.0320
       27 H1     2pz        0.0000   -0.0001    0.0203    0.0196   -0.0156   -0.0161    0.0009    0.0222    0.0209    0.0784
       28 H2     1s        -0.0001    0.0008    0.1407    0.2256    0.3430   -0.1854   -0.1628    0.5824    0.0852    0.5701
       29 H2     2s        -0.0004    0.0002   -0.0210   -0.0264   -0.0642    0.0322    0.0020    0.3919    0.0597    0.4332
       30 H2     2px        0.0001   -0.0001    0.0077    0.0090    0.0122    0.0078   -0.0020    0.0103   -0.0011   -0.0238
       31 H2     2py        0.0000    0.0001   -0.0171   -0.0133   -0.0171    0.0125    0.0092   -0.0222    0.0160    0.0087
       32 H2     2pz       -0.0001    0.0001   -0.0077   -0.0167   -0.0092    0.0083   -0.0032   -0.0049   -0.0225   -0.0028
       33 H3     1s         0.0010    0.0005    0.2003    0.1903    0.0335    0.4783    0.0760    0.9075    0.6143   -1.7731
       34 H3     2s         0.0006    0.0001    0.0011   -0.0103    0.0028   -0.0572    0.0191    0.6181    0.3155   -0.9060
       35 H3     2px       -0.0000    0.0003   -0.0237   -0.0203   -0.0022   -0.0261   -0.0004   -0.0336   -0.0287    0.0582
       36 H3     2py       -0.0001    0.0001   -0.0068    0.0022    0.0069   -0.0093    0.0043   -0.0175   -0.0022    0.0209
       37 H3     2pz        0.0001   -0.0001    0.0051   -0.0019    0.0096    0.0066   -0.0067    0.0113   -0.0153   -0.0353
 
          Orbital           11        12        13        14    
          Energy            0.2789    0.3287    0.4076    0.4372
          Occ. No.          0.0000    0.0000    0.0000    0.0000
 
        1 C1     1s         0.1187    0.0161   -0.0205    0.0156
        2 C1     2s         0.8376    0.1510   -0.2289    0.2403
        3 C1     3s         0.3270    0.1035   -0.0388    0.1902
        4 C1     2pz       -0.4208   -0.4796   -0.6240   -0.7557
        5 C1     3pz       -0.3509   -0.6130   -0.6145   -1.4888
        6 C1     3d2-       0.0287   -0.0798    0.0725    0.0201
        7 C1     3d0        0.0640    0.0008   -0.0204    0.0364
        8 C1     3d2+       0.0622    0.0196   -0.0358    0.0261
        9 C2     1s        -0.0181   -0.0437   -0.0490   -0.1445
       10 C2     2s        -0.1170   -0.2227   -0.1758   -0.9358
       11 C2     3s        -0.0070   -0.0769   -0.1675   -0.2278
       12 C2     2px       -1.0733   -0.2119   -0.1220    0.7448
       13 C2     3px       -1.0681    0.6019   -0.4218    0.5122
       14 C2     2py        0.7569    0.5420    0.9909   -0.0898
       15 C2     3py        0.9580    0.3801    0.9312   -0.0592
       16 C2     2pz       -0.1201    0.7272    1.9557    0.5261
       17 C2     3pz        0.4280    0.7010    1.4841    0.8029
       18 C2     3d2-      -0.0269    0.0131   -0.0201   -0.0189
       19 C2     3d1-      -0.0071   -0.0090    0.0217    0.0998
       20 C2     3d0       -0.0103   -0.0245    0.0136    0.0616
       21 C2     3d1+       0.0012   -0.0157    0.0414    0.0034
       22 C2     3d2+      -0.0626    0.0441    0.0152    0.1019
       23 H1     1s        -0.5332    0.5290    2.4950    0.5312
       24 H1     2s        -0.3891    0.1971    1.3951    0.1246
       25 H1     2px        0.0370   -0.0398    0.0015    0.0047
       26 H1     2py       -0.0017    0.0144    0.0173   -0.0787
       27 H1     2pz        0.0319    0.0867    0.0125   -0.0119
       28 H2     1s        -0.9599   -1.1748   -2.2439    0.7953
       29 H2     2s        -0.3317   -0.7421   -1.1602    0.3983
       30 H2     2px       -0.0355   -0.0436    0.0179   -0.0154
       31 H2     2py        0.0922   -0.0193    0.0260    0.0706
       32 H2     2pz       -0.0031   -0.0330    0.0303    0.0244
       33 H3     1s         1.1597    0.6073    0.0434   -0.8989
       34 H3     2s         0.6405    0.5348   -0.0475   -0.6148
       35 H3     2px       -0.0534    0.0818   -0.0508    0.0503
       36 H3     2py       -0.0431    0.0421   -0.0192   -0.0268
       37 H3     2pz       -0.0256   -0.0232    0.0712   -0.0148

      Molecular orbitals for symmetry species 2: b  
 
          Orbital            1         2         3         4         5         6         7         8         9        10    
          Energy          -11.2310   -0.9477   -0.5944   -0.5691   -0.4950    0.0924    0.1569    0.2289    0.2743    0.3375
          Occ. No.          2.0000    2.0000    2.0000    2.0000    2.0000    0.0000    0.0000    0.0000    0.0000    0.0000
 
        1 C1     2px        0.0000    0.0022    0.1306    0.0403    0.0320   -1.0882    0.0413    0.5453   -0.1320    0.4233
        2 C1     3px        0.0001   -0.0014   -0.0251   -0.0049   -0.0020   -0.4466    0.0450    0.2613    0.0407    0.7219
        3 C1     2py        0.0014    0.2065    0.0742   -0.2714   -0.4272    0.0142    0.7422   -0.2413   -1.0015   -0.1563
        4 C1     3py        0.0010   -0.0347   -0.0190    0.0749    0.0653    0.0467    0.5652   -0.1808   -0.6932   -0.2454
        5 C1     3d1-       0.0000   -0.0381   -0.0077    0.0233    0.0564   -0.0010   -0.0423    0.0041    0.0294    0.0253
        6 C1     3d1+       0.0000    0.0001   -0.0199   -0.0052   -0.0044    0.0278    0.0015   -0.0623    0.0267    0.0367
        7 C2     1s         0.9997   -0.0774   -0.0001    0.0011    0.0039   -0.0009   -0.2437    0.0040   -0.0500    0.0678
        8 C2     2s        -0.0001    0.4979   -0.0393    0.0158   -0.1060    0.0003   -1.7630    0.0023   -0.3356    0.3305
        9 C2     3s        -0.0031   -0.0964   -0.0002    0.0042   -0.0004    0.0015   -0.7276   -0.0049   -0.1341    0.1998
       10 C2     2px       -0.0001    0.0177    0.5376    0.1328    0.0753    0.1940   -0.1291   -0.7376   -0.0114   -1.1274
       11 C2     3px       -0.0004   -0.0059   -0.0636   -0.0165   -0.0120    0.1073   -0.1069   -1.2851    0.0730   -0.8805
       12 C2     2py        0.0010    0.0567   -0.0901   -0.0146    0.6211   -0.0152    0.4356    0.2175   -0.1186    1.2104
       13 C2     3py        0.0008    0.0279    0.0097   -0.0101   -0.0706   -0.0234    0.6726    0.1946   -0.0929    0.7641
       14 C2     2pz       -0.0007    0.0100    0.1333   -0.5748    0.0123   -0.1377   -0.1893    0.4265    2.0368    0.9907
       15 C2     3pz       -0.0005   -0.0042   -0.0212    0.0689    0.0019   -0.1158   -0.2387    0.3868    2.2906    0.4747
       16 C2     3d2-      -0.0000   -0.0025    0.0007    0.0122   -0.0141    0.0466    0.0022   -0.0472    0.0177    0.0613
       17 C2     3d1-       0.0001   -0.0002   -0.0186    0.0080    0.0453   -0.0030    0.0098    0.0212    0.0116    0.0111
       18 C2     3d0       -0.0000   -0.0006   -0.0267    0.0123   -0.0232   -0.0132    0.0074    0.0100   -0.0602   -0.0098
       19 C2     3d1+       0.0000   -0.0010   -0.0119    0.0205   -0.0152   -0.0354    0.0005    0.0246   -0.0451    0.0025
       20 C2     3d2+       0.0002    0.0028    0.0246    0.0323    0.0022    0.0224    0.0092   -0.0390   -0.0212   -0.0231
       21 H1     1s         0.0001    0.1974   -0.2707    0.3401   -0.1563   -0.3932    0.3677    0.0627    2.0852    0.5835
       22 H1     2s        -0.0004   -0.0388    0.0440   -0.0584    0.0111   -0.1487    0.2393    0.1199    1.0736    0.4323
       23 H1     2px       -0.0001    0.0113    0.0015    0.0153   -0.0021   -0.0010    0.0019    0.0300    0.0573   -0.0540
       24 H1     2py       -0.0000   -0.0001   -0.0039    0.0048    0.0137   -0.0063   -0.0239   -0.0075   -0.0053   -0.0034
       25 H1     2pz       -0.0002    0.0247   -0.0195    0.0145   -0.0114   -0.0030    0.0082   -0.0432    0.1075   -0.0191
       26 H2     1s         0.0001    0.1977   -0.1545   -0.2387    0.3795   -0.1285   -0.0471   -0.6467   -0.5797   -2.3969
       27 H2     2s        -0.0005   -0.0506    0.0316    0.0392   -0.0375   -0.0105    0.1012   -0.3023   -0.2726   -1.4873
       28 H2     2px       -0.0001    0.0090    0.0057   -0.0042    0.0124    0.0007   -0.0079    0.0347   -0.0221    0.0174
       29 H2     2py        0.0002   -0.0224    0.0095    0.0177   -0.0075   -0.0074   -0.0021    0.0605    0.0550    0.0187
       30 H2     2pz        0.0001   -0.0124    0.0101   -0.0007   -0.0149    0.0047    0.0221    0.0262   -0.0175    0.0113
       31 H3     1s         0.0007    0.2152    0.3602    0.1738    0.1337    0.5060    0.4187    0.8284    0.7923    1.1345
       32 H3     2s         0.0001   -0.0432   -0.0597   -0.0277   -0.0016    0.1503    0.3130    0.2658    0.4296    0.6274
       33 H3     2px        0.0003   -0.0269   -0.0198   -0.0113   -0.0071   -0.0048   -0.0023   -0.0879   -0.0190    0.0107
       34 H3     2py        0.0000   -0.0072   -0.0098   -0.0027    0.0132    0.0187   -0.0269   -0.0284    0.0039    0.0454
       35 H3     2pz       -0.0000    0.0039    0.0085   -0.0105    0.0018   -0.0129    0.0092    0.0279   -0.0464    0.0521
 
          Orbital           11        12        13        14    
          Energy            0.3610    0.4485    0.5161    0.5573
          Occ. No.          0.0000    0.0000    0.0000    0.0000
 
        1 C1     2px        0.7292   -0.2693   -0.4031   -0.5325
        2 C1     3px        0.6894   -0.5624    0.0371   -1.5734
        3 C1     2py       -0.4234    1.0112   -1.5007   -1.1592
        4 C1     3py       -0.1865    1.2106   -1.3909   -1.1015
        5 C1     3d1-      -0.0214    0.1150   -0.0318   -0.0542
        6 C1     3d1+      -0.0192   -0.0341   -0.0124    0.0240
        7 C2     1s        -0.1001   -0.2288   -0.0636    0.0732
        8 C2     2s        -0.5610   -1.4340   -0.4844    0.4180
        9 C2     3s        -0.2462   -0.3909   -0.2275    0.1106
       10 C2     2px       -1.8488    0.4769    0.8860    0.4711
       11 C2     3px       -1.3705    0.4702    0.5478    0.8485
       12 C2     2py       -1.3937   -1.5589   -1.2598    0.4767
       13 C2     3py       -1.0565   -2.0496   -0.8007    0.6708
       14 C2     2pz       -0.6203   -0.8750    1.1530    1.4247
       15 C2     3pz       -0.5826   -1.0712    0.5183    1.0556
       16 C2     3d2-      -0.0272   -0.0508    0.0548   -0.0745
       17 C2     3d1-       0.0062    0.0028    0.0118    0.0032
       18 C2     3d0        0.0006    0.0783   -0.0065   -0.0464
       19 C2     3d1+       0.0131    0.0372   -0.0176    0.1044
       20 C2     3d2+       0.0142    0.0646   -0.0056   -0.0159
       21 H1     1s        -1.5072    0.2680    2.2657    1.2084
       22 H1     2s        -0.8165    0.1291    1.3752    0.6063
       23 H1     2px       -0.0256   -0.0337   -0.0256   -0.0562
       24 H1     2py        0.0007    0.0924   -0.0417   -0.0660
       25 H1     2pz       -0.0032   -0.1070   -0.0452    0.0627
       26 H2     1s         1.2091    1.7026    1.8719   -0.8989
       27 H2     2s         0.6981    0.8405    0.9745   -0.5334
       28 H2     2px       -0.0303    0.0107    0.0483    0.0014
       29 H2     2py       -0.0359   -0.1302   -0.0024   -0.0088
       30 H2     2pz       -0.0286    0.0121    0.0329    0.0016
       31 H3     1s         2.6034    0.1795    0.0045    0.5602
       32 H3     2s         1.5203    0.1085   -0.0234    0.5045
       33 H3     2px       -0.0184    0.0315    0.0074    0.0379
       34 H3     2py       -0.0385    0.0346   -0.0259    0.0379
       35 H3     2pz        0.0172   -0.0015    0.0438    0.0232
--
 
 
++    Molecular charges:
      ------------------
 
      Mulliken charges per centre and basis function type
      ---------------------------------------------------
 
                C1      C2      H1      H2      H3    
      1s       2.0008  1.9998  0.9038  0.8517  0.8862
      2s       1.5601  0.9059  0.0304  0.0186  0.0373
      2px      0.1275  1.0608  0.0115  0.0106  0.0245
      2pz      1.4434  1.0150  0.0228  0.0114  0.0090
      2py      0.8777  0.9872  0.0077  0.0181  0.0091
      3s       0.0137 -0.0173  0.0000  0.0000  0.0000
      3px     -0.0160 -0.0040  0.0000  0.0000  0.0000
      3pz     -0.0191 -0.0088  0.0000  0.0000  0.0000
      3py      0.0524  0.0338  0.0000  0.0000  0.0000
      3d2+     0.0162  0.0288  0.0000  0.0000  0.0000
      3d1+     0.0110  0.0098  0.0000  0.0000  0.0000
      3d0      0.0121  0.0314  0.0000  0.0000  0.0000
      3d1-     0.0450  0.0280  0.0000  0.0000  0.0000
      3d2-     0.0181  0.0055  0.0000  0.0000  0.0000
      Total    6.1429  6.0759  0.9763  0.9103  0.9661
 
      N-E     -0.1429 -0.0759  0.0237  0.0897  0.0339
 
      Total electronic charge=   24.000000
 
      Total            charge=   -0.000000
--
 
 
++    Static properties:
      ------------------
 
 
      LoProp Charges per center
 

                   C1       C2       H1       H2       H3    
      Nuclear      6.0000   6.0000   1.0000   1.0000   1.0000
      Electronic  -6.0268  -6.3575  -0.9072  -0.8681  -0.8537
 
      Total       -0.0268  -0.3575   0.0928   0.1319   0.1463
--
 
 
++    Natural Bond Order analysis
      ---------------------------
      Based on LoProp computed density
      -------------------------------------------------------------------------------------
      Atom A:Gen.  Atom B:Gen.  Bond Order
      -------------------------------------------------------------------------------------
      NBO located      0.997 non-bonded electrons on atom C1    :E  
      NBO located      0.995 non-bonded electrons on atom C2    :E  
      The remaining   13.025 electrons are to be considered as diffuse
--
 
 
++    Molecular properties:
      ---------------------
 
      Charge (e):
                      =   -0.0000
      Dipole Moment (debye):
      Origin of the operator (angstrom)=    0.0000    0.0000    0.0000
                   X=  0.0000E+00               Y=  0.0000E+00               Z= -2.2925E+00           Total=  2.2925E+00
      Quadrupole Moment (debye*angstrom):
      Origin of the operator (angstrom)=    0.0000    0.0000   -0.0000
                  XX= -1.9401E+01              XY=  3.4731E-01              XZ=  0.0000E+00              YY= -1.9155E+01
                  YZ=  0.0000E+00              ZZ= -2.5289E+01
      In traceless form (debye*angstrom)
                  XX=  2.8208E+00              XY=  5.2096E-01              XZ=  0.0000E+00              YY=  3.1898E+00
                  YZ=  0.0000E+00              ZZ= -6.0106E+00
--
 
 
      Input file to MOLDEN was generated!
 
 ###############################################################################
 ###############################################################################
 ###                                                                         ###
 ###                                                                         ###
 ###    WARNING: RunFile label nBas                                          ###
 ###    was used       65 times                                              ###
 ###                                                                         ###
 ###                                                                         ###
 ###############################################################################
 ###############################################################################
forrtl: warning (528): IEEE_UNDERFLOW is signaling
--- Stop Module: scf at Sun Dec  7 11:09:29 2025 /rc=_RC_ALL_IS_WELL_ ---
*** files: dimethylcarben.LprOrb dimethylcarben.scf.molden dimethylcarben.ScfOrb xmldump
    saved to directory /home/charlie/input_examples/molcas/dimethylcarbene
--- Module scf spent 1 second ---

--- Start Module: rasscf at Sun Dec  7 11:09:29 2025 ---
 
()()()()()()()()()()()()()()()()()()()()()()()()()()()()()()()()()()()()()()()()()()()()()()()()()()

                                              &RASSCF

                       only a single process is used, running in SERIAL mode
                       available to each process: 5.0 GB of memory, 1 thread
                                            pid: 3105525
()()()()()()()()()()()()()()()()()()()()()()()()()()()()()()()()()()()()()()()()()()()()()()()()()()
 
 
      Header of the ONEINT file:
      --------------------------
      Dimethylcarbene singlet C2-sym
      Integrals generated by Gateway/Seward, Sun Dec  7 11:09:25 2025
 
 
      OrdInt status: non-squared
 
 
      Cartesian coordinates in angstrom:
      -----------------------------------------------------
      No.  Label        X            Y            Z        
      -----------------------------------------------------
       1   C1         0.00000000   0.00000000   0.63606420
       2   C2         0.01952956   1.23303781  -0.21203997
       3   H1        -0.44039764   1.12744327  -1.19947169
       4   H2        -0.37464157   2.10594481   0.30544160
       5   H3         1.09387041   1.40683803  -0.36800007
       6   C2        -0.01952956  -1.23303781  -0.21203997
       7   H1         0.44039764  -1.12744327  -1.19947169
       8   H2         0.37464157  -2.10594481   0.30544160
       9   H3        -1.09387041  -1.40683803  -0.36800007
      -----------------------------------------------------
      Nuclear repulsion energy =   69.29469486
 
++    Wave function specifications:
      -----------------------------
 
      Number of closed shell electrons          22
      Number of electrons in active shells       2
      Max number of holes in RAS1 space          0
      Max nr of electrons in RAS3 space          0
      Number of inactive orbitals               11
      Number of active orbitals                  2
      Number of secondary orbitals              59
      Spin quantum number                      0.0
      State symmetry                             1
--
 
++    Orbital specifications:
      -----------------------
 
      Symmetry species                           1   2
                                                 a   b
      Frozen orbitals                            0   0
      Inactive orbitals                          6   5
      Active orbitals                            1   1
      RAS1 orbitals                              0   0
      RAS2 orbitals                              1   1
      RAS3 orbitals                              0   0
      Secondary orbitals                        30  29
      Deleted orbitals                           0   0
      Number of basis functions                 37  35
--
 
++    CI expansion specifications:
      ----------------------------
 
      Number of CSFs                             2
      Number of determinants                     2
      Number of root(s) required                 1
      Root chosen for geometry opt.              1
      CI root used                               1
         
      highest root included in the CI            1
      max. size of the explicit Hamiltonian      2
--
 
++    Optimization specifications:
      ----------------------------
 
      RASSCF algorithm: Conventional
      Maximum number of macro iterations        50
      Maximum number of SX iterations           25
      Threshold for RASSCF energy            1.000E-05
      Threshold for max MO rotation          1.000E-03
      Threshold for max BLB element          1.000E-03
      Level shift parameter                  5.000E-01
      Make Quasi-Newton update
--
 
      The MO-coefficients are taken from the file:
      INPORB
      Title: RASSCF average (pseudo-natural) orbitals                                      
 
      Total molecular charge    0.00
 
      ************************************************************************************************************************
      *                                                                                                                      *
      *                                            Wave function control section                                             *
      *                                                                                                                      *
      ************************************************************************************************************************
 
 
                                         RASSCF iterations: Energy and convergence statistics
                                         ----------------------------------------------------
 
      Iter CI   SX   CI       RASSCF       Energy    max ROT     max BLB   max BLB  Level Ln srch  Step   QN   Walltime
          iter iter root      energy       change     param      element    value   shift minimum  type update hh:mm:ss
 Nr of preliminary CI iterations:   1
        1   1    4    1  -117.02046198    0.00E+00   2.26E-05    6  15 2 -2.70E-06   0.01   0.00    SX    NO    0:00:00
        2   1    4    1  -117.02046198   -4.49E-10   1.68E-05    6  15 2 -2.00E-06   0.01   0.00    SX    NO    0:00:00
        3   1    4    1  -117.02046198   -2.39E-10   1.24E-05    6  15 2 -1.48E-06   0.01   0.00    SX    NO    0:00:00
        4   1    4    1  -117.02046198   -1.30E-10   9.24E-06    6  15 2 -1.10E-06   0.01   0.00    SX    NO    0:00:00
      Convergence after  4 iterations
        5   1    4    1  -117.02046198   -7.07E-11   9.24E-06    6  15 2 -8.19E-07   0.01   0.00    SX    NO    0:00:00
 
      ************************************************************************************************************************
                                                      Wave function printout:
                       occupation of active orbitals, and spin coupling of open shells (u,d: Spin up or down)
      ************************************************************************************************************************
 
      Note: transformation to natural orbitals
      has been made, which may change the order of the CSFs.
 
      printout of CI-coefficients larger than  0.05 for root  1
      energy=    -117.020462
      conf/sym  12     Coeff  Weight
             1  2 0   0.98286 0.96600
             2  0 2  -0.18438 0.03400
 
      Natural orbitals and occupation numbers for root  1
      sym 1:   1.932009
      sym 2:   0.067991
 
      ************************************************************************************************************************
      *                                                                                                                      *
      *                                                    Final results                                                     *
      *                                                                                                                      *
      ************************************************************************************************************************
 
 
++    Final optimization conditions:
      ------------------------------
 
      Average CI energy                            -117.02046198
      RASSCF energy for state  1                   -117.02046198
      Super-CI energy                                -0.00000000
      RASSCF energy change                           -0.00000000
      Max change in MO coefficients               1.834E-05
      Max non-diagonal density matrix element     9.242E-06
      Maximum BLB matrix element                 -8.187E-07
      (orbital pair   6,  15 in symmetry   2)
      Norm of electronic gradient            2.360E-06
--
 
 
      Final state energy(ies):
      ------------------------
 
::    RASSCF root number  1 Total energy:   -117.02046198
 
++    Molecular orbitals:
      -------------------
 
      Pseudonatural active orbitals and approximate occupation numbers
 
 
 
 
      Molecular orbitals for symmetry species 1: a  
 
 
      Orbital                 1         2         3         4         5         6         7         8
      Energy           -11.2590  -11.2278   -1.0382   -0.6782   -0.5876   -0.5457   -0.4155    0.1200
      Occ. No.           2.0000    2.0000    2.0000    2.0000    2.0000    2.0000    1.9320    0.0000
 
     1 C1     1s         1.0000   -0.0166   -0.0317    0.0346   -0.0154    0.0042    0.0226   -0.0013
     2 C1     2s        -0.0034    0.0017    0.2448   -0.3012    0.0739   -0.0649    0.7806   -0.0930
     3 C1     3s        -0.0005    0.0006   -0.0331    0.0354   -0.0291    0.0057    0.0676   -0.0330
     4 C1     2pz       -0.0069   -0.0003   -0.2308    0.3445   -0.0794    0.0684    0.6928   -0.2461
     5 C1     3pz        0.0009   -0.0002    0.0435   -0.0257   -0.0194    0.0029    0.0255   -0.0760
     6 C1     3d2-       0.0000   -0.0001   -0.0000   -0.0004    0.0032    0.0228    0.0025    0.0019
     7 C1     3d0        0.0007   -0.0000    0.0097   -0.0187   -0.0143   -0.0019   -0.0286   -0.0005
     8 C1     3d2+      -0.0009    0.0001   -0.0231    0.0174   -0.0161    0.0078    0.0204    0.0015
     9 C2     1s         0.0165    0.9996   -0.0768   -0.0204    0.0041   -0.0024   -0.0058   -0.2451
    10 C2     2s         0.0001    0.0003    0.4288    0.1275    0.0509   -0.0367   -0.1491   -1.7349
    11 C2     3s        -0.0005   -0.0026   -0.1047   -0.0227    0.0043   -0.0032   -0.0055   -0.7021
    12 C2     2px       -0.0006    0.0003   -0.0087   -0.0214    0.0730    0.5802   -0.0022   -0.2904
    13 C2     3px       -0.0005   -0.0000   -0.0215    0.0004   -0.0165   -0.0732    0.0014   -0.2320
    14 C2     2py        0.0003    0.0002   -0.0933    0.4580    0.1909   -0.0188    0.0468   -0.2655
    15 C2     3py        0.0004    0.0001    0.0270   -0.1008   -0.0190   -0.0069   -0.0139   -0.0790
    16 C2     2pz        0.0002   -0.0001    0.0290   -0.1501    0.5232   -0.0834   -0.0988    0.2581
    17 C2     3pz       -0.0002    0.0001   -0.0081    0.0352   -0.0683    0.0081   -0.0313    0.0774
    18 C2     3d2-       0.0000   -0.0000   -0.0002   -0.0059   -0.0131    0.0128    0.0029    0.0004
    19 C2     3d1-       0.0004    0.0000   -0.0100    0.0361    0.0017   -0.0113   -0.0205   -0.0073
    20 C2     3d0       -0.0000   -0.0001   -0.0099    0.0134   -0.0334   -0.0192    0.0303   -0.0125
    21 C2     3d1+      -0.0001    0.0000    0.0008   -0.0018   -0.0266   -0.0077    0.0056   -0.0049
    22 C2     3d2+       0.0004    0.0000   -0.0125    0.0244   -0.0182    0.0400    0.0114   -0.0258
    23 H1     1s        -0.0013    0.0011    0.1670    0.2132   -0.4434   -0.1421    0.1435    0.4763
    24 H1     2s        -0.0004    0.0003   -0.0255    0.0063    0.0438    0.0215    0.0355    0.4025
    25 H1     2px        0.0000   -0.0001    0.0108    0.0078   -0.0134    0.0079    0.0001    0.0103
    26 H1     2py       -0.0002   -0.0001   -0.0008    0.0113    0.0012   -0.0006    0.0039   -0.0060
    27 H1     2pz        0.0001   -0.0001    0.0230    0.0121   -0.0202   -0.0137   -0.0048    0.0227
    28 H2     1s         0.0007    0.0008    0.1697    0.2701    0.2944   -0.2200   -0.1131    0.5841
    29 H2     2s        -0.0003    0.0002   -0.0205   -0.0447   -0.0494    0.0357   -0.0074    0.3946
    30 H2     2px        0.0001   -0.0001    0.0084    0.0106    0.0109    0.0069   -0.0016    0.0102
    31 H2     2py       -0.0000    0.0001   -0.0189   -0.0144   -0.0146    0.0143    0.0061   -0.0221
    32 H2     2pz       -0.0001    0.0001   -0.0085   -0.0189   -0.0025    0.0077   -0.0011   -0.0049
    33 H3     1s         0.0009    0.0005    0.2151    0.1662    0.0287    0.4872    0.0121    0.9066
    34 H3     2s         0.0004    0.0001   -0.0039    0.0003   -0.0082   -0.0548    0.0223    0.6175
    35 H3     2px       -0.0001    0.0003   -0.0260   -0.0161   -0.0012   -0.0265    0.0037   -0.0340
    36 H3     2py       -0.0002    0.0001   -0.0074    0.0065    0.0031   -0.0090    0.0042   -0.0175
    37 H3     2pz        0.0001   -0.0001    0.0052   -0.0012    0.0122    0.0049   -0.0031    0.0111
 
 
 
      Molecular orbitals for symmetry species 2: b  
 
 
      Orbital                 1         2         3         4         5         6
      Energy           -11.2279   -0.9455   -0.5921   -0.5671   -0.4925    0.2440
      Occ. No.           2.0000    2.0000    2.0000    2.0000    2.0000    0.0680
 
     1 C1     2px        0.0000    0.0015    0.1224    0.0385    0.0310   -0.9650
     2 C1     3px        0.0001   -0.0016   -0.0271   -0.0052   -0.0024    0.0917
     3 C1     2py        0.0014    0.2057    0.0735   -0.2691   -0.4279   -0.0688
     4 C1     3py        0.0010   -0.0347   -0.0193    0.0738    0.0653   -0.0269
     5 C1     3d1-       0.0000   -0.0378   -0.0076    0.0227    0.0561   -0.0144
     6 C1     3d1+       0.0000    0.0001   -0.0196   -0.0051   -0.0044   -0.3004
     7 C2     1s         0.9997   -0.0773   -0.0000    0.0009    0.0037   -0.0011
     8 C2     2s        -0.0001    0.4984   -0.0379    0.0163   -0.1082    0.0017
     9 C2     3s        -0.0031   -0.0959   -0.0001    0.0040   -0.0004   -0.0047
    10 C2     2px       -0.0001    0.0175    0.5399    0.1321    0.0767    0.1795
    11 C2     3px       -0.0004   -0.0056   -0.0619   -0.0165   -0.0114    0.0326
    12 C2     2py        0.0010    0.0569   -0.0898   -0.0158    0.6211    0.0039
    13 C2     3py        0.0008    0.0279    0.0099   -0.0094   -0.0702    0.0083
    14 C2     2pz       -0.0007    0.0109    0.1334   -0.5749    0.0096    0.0455
    15 C2     3pz       -0.0005   -0.0042   -0.0208    0.0687    0.0028    0.0435
    16 C2     3d2-      -0.0000   -0.0025    0.0013    0.0124   -0.0141    0.0394
[...]
    14 C2     2pz       -0.0007    0.0101    0.1334   -0.5748    0.0124   -0.1377
    15 C2     3pz       -0.0005   -0.0042   -0.0213    0.0689    0.0020   -0.1158
    16 C2     3d2-      -0.0000   -0.0025    0.0007    0.0122   -0.0141    0.0465
    17 C2     3d1-       0.0001   -0.0002   -0.0186    0.0079    0.0453   -0.0030
    18 C2     3d0       -0.0000   -0.0006   -0.0267    0.0123   -0.0232   -0.0132
    19 C2     3d1+       0.0000   -0.0010   -0.0119    0.0205   -0.0152   -0.0354
    20 C2     3d2+       0.0002    0.0028    0.0246    0.0323    0.0022    0.0224
    21 H1     1s         0.0001    0.1974   -0.2708    0.3400   -0.1562   -0.3931
    22 H1     2s        -0.0004   -0.0388    0.0440   -0.0584    0.0112   -0.1487
    23 H1     2px       -0.0001    0.0113    0.0015    0.0153   -0.0021   -0.0010
    24 H1     2py       -0.0000   -0.0001   -0.0039    0.0048    0.0137   -0.0063
    25 H1     2pz       -0.0002    0.0247   -0.0195    0.0145   -0.0114   -0.0030
    26 H2     1s         0.0001    0.1977   -0.1545   -0.2388    0.3796   -0.1285
    27 H2     2s        -0.0005   -0.0506    0.0316    0.0392   -0.0374   -0.0105
    28 H2     2px       -0.0001    0.0090    0.0057   -0.0042    0.0124    0.0007
    29 H2     2py        0.0002   -0.0224    0.0095    0.0177   -0.0075   -0.0074
    30 H2     2pz        0.0001   -0.0124    0.0101   -0.0007   -0.0149    0.0047
    31 H3     1s         0.0007    0.2152    0.3602    0.1740    0.1338    0.5059
    32 H3     2s         0.0001   -0.0432   -0.0597   -0.0277   -0.0016    0.1503
    33 H3     2px        0.0003   -0.0269   -0.0198   -0.0113   -0.0071   -0.0048
    34 H3     2py        0.0000   -0.0072   -0.0098   -0.0027    0.0132    0.0187
    35 H3     2pz       -0.0000    0.0039    0.0085   -0.0105    0.0018   -0.0129
--
 
      Von Neumann Entropy (Root   1) = -0.00000
 

      Mulliken population analysis for root number:  1
      -----------------------------------------------
 
 
++    Molecular charges:
      ------------------
 
      Mulliken charges per centre and basis function type
      ---------------------------------------------------
 
                C1      C2      H1      H2      H3    
      1s       2.0008  1.9998  0.9037  0.8519  0.8863
      2s       1.5608  0.9059  0.0304  0.0186  0.0373
      2px      0.1273  1.0607  0.0115  0.0106  0.0245
      2pz      1.4428  1.0152  0.0228  0.0114  0.0090
      2py      0.8774  0.9873  0.0078  0.0181  0.0091
      3s       0.0137 -0.0173  0.0000  0.0000  0.0000
      3px     -0.0160 -0.0040  0.0000  0.0000  0.0000
      3pz     -0.0191 -0.0089  0.0000  0.0000  0.0000
      3py      0.0524  0.0338  0.0000  0.0000  0.0000
      3d2+     0.0162  0.0288  0.0000  0.0000  0.0000
      3d1+     0.0110  0.0098  0.0000  0.0000  0.0000
      3d0      0.0121  0.0313  0.0000  0.0000  0.0000
      3d1-     0.0450  0.0280  0.0000  0.0000  0.0000
      3d2-     0.0181  0.0055  0.0000  0.0000  0.0000
      Total    6.1425  6.0759  0.9762  0.9105  0.9662
 
      N-E     -0.1425 -0.0759  0.0238  0.0895  0.0338
 
      Total electronic charge=   24.000000
 
      Total            charge=   -0.000000
--
 
 

      Expectation values of various properties for root number:  1
      -----------------------------------------------------------
 
 
++    Molecular properties:
      ---------------------
 
      Charge (e):
                      =   -0.0000
      Dipole Moment (debye):
      Origin of the operator (angstrom)=    0.0000    0.0000    0.0000
                   X=  0.0000E+00               Y=  0.0000E+00               Z= -2.2887E+00           Total=  2.2887E+00
      Quadrupole Moment (debye*angstrom):
      Origin of the operator (angstrom)=    0.0000    0.0000   -0.0000
                  XX= -1.9401E+01              XY=  3.4707E-01              XZ=  0.0000E+00              YY= -1.9163E+01
                  YZ=  0.0000E+00              ZZ= -2.5280E+01
      In traceless form (debye*angstrom)
                  XX=  2.8200E+00              XY=  5.2061E-01              XZ=  0.0000E+00              YY=  3.1779E+00
                  YZ=  0.0000E+00              ZZ= -5.9979E+00
--
 

      LoProp population analysis for root number:  1
      -----------------------------------------------
 
 
++    LoProp analysis:
      ----------------
 
 
 
++    Static properties:
      ------------------
 
 
      LoProp Charges per center
 

                   C1       C2       H1       H2       H3    
      Nuclear      6.0000   6.0000   1.0000   1.0000   1.0000
      Electronic  -6.0264  -6.3576  -0.9072  -0.8682  -0.8538
 
      Total       -0.0264  -0.3576   0.0928   0.1318   0.1462
--
 
 
      Natural Bond Order analysis for root number:  1
 
++    Natural Bond Order analysis
      ---------------------------
      Based on LoProp computed density
      -------------------------------------------------------------------------------------
      Atom A:Gen.  Atom B:Gen.  Bond Order
      -------------------------------------------------------------------------------------
      NBO located      0.997 non-bonded electrons on atom C1    :E  
      NBO located      0.995 non-bonded electrons on atom C2    :E  
      The remaining   13.024 electrons are to be considered as diffuse
--
 
--
 
 
      Input file to MOLDEN was generated!
 
      Canonical orbitals are written to the RASORB file
      Natural orbitals for root   1 are written to the RASORB.1 file
      Spin density orbitals for root   1 are written to the SPDORB.1 file
 
forrtl: warning (528): IEEE_UNDERFLOW is signaling
--- Stop Module: rasscf at Sun Dec  7 11:09:39 2025 /rc=_RC_ALL_IS_WELL_ ---
*** files: dimethylcarben.LprOrb dimethylcarben.rasscf.molden dimethylcarben.RasOrb dimethylcarben.RasOrb.1 dimethylcarben.SpdOrb.1 xmldump
    saved to directory /home/charlie/input_examples/molcas/dimethylcarbene

--- Start Module: motra at Sun Dec  7 11:09:39 2025 ---
 
()()()()()()()()()()()()()()()()()()()()()()()()()()()()()()()()()()()()()()()()()()()()()()()()()()

                                               &MOTRA

                       only a single process is used, running in SERIAL mode
                       available to each process: 5.0 GB of memory, 1 thread
                                            pid: 3105546
()()()()()()()()()()()()()()()()()()()()()()()()()()()()()()()()()()()()()()()()()()()()()()()()()()
 
 
      *** WARNING: Default frozen orbitals is overwritten by user input.
      *** Default values:   2   1
 
      **************************************************************************************************************************
      *                                                                                                                        *
      *                                                        Project:                                                        *
      *                                                          DMC                                                           *
      *                                                                                                                        *
      **************************************************************************************************************************
 
 
      Header of the integral files:
                           Dimethylcarbene singlet C2-sym
       Integrals generated by Gateway/Seward, Sun Dec  7 11:09:25 2025
 
 
      Header of MO coefficients source file:
      JOBIPH                                                                          
 
 
      Cartesian coordinates in angstrom:
      -----------------------------------------------------
      No.  Label        X            Y            Z        
      -----------------------------------------------------
       1   C1         0.00000000   0.00000000   0.63606420
       2   C2         0.01952956   1.23303781  -0.21203997
       3   H1        -0.44039764   1.12744327  -1.19947169
       4   H2        -0.37464157   2.10594481   0.30544160
       5   H3         1.09387041   1.40683803  -0.36800007
       6   C2        -0.01952956  -1.23303781  -0.21203997
       7   H1         0.44039764  -1.12744327  -1.19947169
       8   H2         0.37464157  -2.10594481   0.30544160
       9   H3        -1.09387041  -1.40683803  -0.36800007
      -----------------------------------------------------
      Nuclear repulsion energy =   69.29469486
 
      Orbital specifications:
      -----------------------
 
      Symmetry species:              1   2
      Number of basis functions:    37  35
      Frozen orbitals:               2   1
      Deleted orbitals:              0   0
      Number of orbitals used:      35  34

       SYMMETRY  BASIS FUNCTIONS       ORBITALS      INTEGRALS   CPU(SEC)  I/O(SEC)
        1 1 1 1   37  37  37  37    35  35  35  35      198765       0.00      0.00
        2 1 2 1   35  37  35  37    34  35  34  35      708645       0.00      0.00
        2 2 1 1   35  35  37  37    34  34  35  35      374850       0.00      0.00
        2 2 2 2   35  35  35  35    34  34  34  34      177310       0.00      0.00

       TOTAL CPU TIME(SEC)    0.04TOTAL I/O TIME(SEC)    0.05
 
forrtl: warning (528): IEEE_UNDERFLOW is signaling
--- Stop Module: motra at Sun Dec  7 11:09:40 2025 /rc=_RC_ALL_IS_WELL_ ---
*** files: xmldump
    saved to directory /home/charlie/input_examples/molcas/dimethylcarbene

--- Start Module: ccsdt at Sun Dec  7 11:09:40 2025 ---
 
()()()()()()()()()()()()()()()()()()()()()()()()()()()()()()()()()()()()()()()()()()()()()()()()()()

                                               &CCSDT

                       only a single process is used, running in SERIAL mode
                       available to each process: 5.0 GB of memory, 1 thread
                                            pid: 3105549
()()()()()()()()()()()()()()()()()()()()()()()()()()()()()()()()()()()()()()()()()()()()()()()()()()
 
      Standard Fortran IO handling used 
      Integrals for CCSD will be produced
      Integrals for Noniterative T3 will be produced
      RHF closed shell reference function
 
      Actual numbers of frozen and deleted orbitals :
      -----------------------------------------------
 
      Symmetry species                           1   2
      Frozen orbitals                            2   1
      Deleted orbitals                           0   0
 
 
      Wave function specifications from previous RASSCF:
      --------------------------------------------------
 
      Number of closed shell electrons          24
      Number of electrons in active shells       0
      Max number of holes in RAS1 space          0
      Max number of electrons in RAS3 space      0
      Number of inactive orbitals               12
      Number of active orbitals                  0
      Number of secondary orbitals              60
      Spin quantum number                      0.0
      State symmetry                             1
      Number of configuration state fnc.         1
      Number of root(s) available                1
      CI root used                               1
      This is a closed shell RHF reference function
 
 
      Orbital specifications from previous RASSCF:
      --------------------------------------------
 
      Symmetry species                           1   2
      Frozen orbitals                            0   0
      Inactive orbitals                          7   5
      Active orbitals                            0   0
      Secondary orbitals                        30  30
      Deleted orbitals                           0   0
      Number of basis functions                 37  35
 
 
      SCF energy:   -117.00116957
      -----------
 
      Required WRK size-sum :               457242
 
      ****************************************************************************************************************
      *                   Dmc                                                                                        *
      ****************************************************************************************************************
 
 
      Wave function specifications:
      -----------------------------
 
      Spin mutiplicity                           1
      State symmetry                             1
 
      Orbital specifications:
      -----------------------
 
      Symmetry species                           1   2
      Total no. of orbitals                     35  34
      No. of occupied orbitals with alpha spin   5   4
      No. of occupied orbitals with beta spin    5   4
      No. of virtual orbitals with alpha spin   30  30
      No. of virtual orbitals with beta spin    30  30
 
 
      Methods and options:
      --------------------
 
      Max no. of iterations                  40
      Type of denominators                  diagonal Fock matrix elements
      energy convergence criterium                0.00000010000000
 
 DIIS EXTRAPOLATION USED     : NO
 
 SPIN ADAPTATION             : NONE 
 RST. INF. WILL BE SAVED IN  : RSTART
 PREFERENCE MATRIX MULT.     : NORMAL
 DENOMINATOR SHIFT FOR OCC.  :      0.00000
 DENOMINATOR SHIFT FOR VIRT. :      0.00000
 LEVEL OF OUTPUT PRINTING    : MINIMAL
 INPUT/OUTPUT HANDLING       : Standard SQ 
 MATRIX OPERATIONS           : ESSL        
 
 
  nProcs, myRank 1 0
  Basic Work space requirements    : 957905
  Max Size 624998341
  Final Work space requirements    : 1102805
  Allocation of work space   : Done
 
      Iteration       Total enegy      Corr. energy      Difference
          1         -117.39212146      -0.39095189      -0.39095189
          2         -117.42633020      -0.42516062      -0.03420873
          3         -117.43711354      -0.43594397      -0.01078335
          4         -117.43992948      -0.43875991      -0.00281594
          5         -117.44120661      -0.44003704      -0.00127713
          6         -117.44173818      -0.44056861      -0.00053157
          7         -117.44202223      -0.44085266      -0.00028406
          8         -117.44217347      -0.44100390      -0.00015124
          9         -117.44226366      -0.44109409      -0.00009019
         10         -117.44231867      -0.44114910      -0.00005501
         11         -117.44235400      -0.44118442      -0.00003533
         12         -117.44237716      -0.44120759      -0.00002317
         13         -117.44239274      -0.44122316      -0.00001557
         14         -117.44240335      -0.44123378      -0.00001061
         15         -117.44241068      -0.44124111      -0.00000733
         16         -117.44241578      -0.44124621      -0.00000510
         17         -117.44241936      -0.44124978      -0.00000358
         18         -117.44242188      -0.44125231      -0.00000252
         19         -117.44242366      -0.44125409      -0.00000178
         20         -117.44242493      -0.44125536      -0.00000127
         21         -117.44242583      -0.44125626      -0.00000090
         22         -117.44242647      -0.44125690      -0.00000064
         23         -117.44242693      -0.44125736      -0.00000046
         24         -117.44242726      -0.44125769      -0.00000033
         25         -117.44242749      -0.44125792      -0.00000023
         26         -117.44242766      -0.44125809      -0.00000017
         27         -117.44242778      -0.44125821      -0.00000012
         28         -117.44242787      -0.44125830      -0.00000009
      Convergence after  29  Iterations
 
 
      Total energy (diff) :    -117.44242787      -0.00000009
      Correlation energy  :        -0.4412582956125
      Reference energy    :      -117.0011695715545
      E1aa   contribution :       0.00000000
      E1bb   contribution :       0.00000000
      E2aaaa contribution :      -0.04112062
      E2bbbb contribution :      -0.04112062
      E2abab contribution :      -0.35901705
 
 
 Five largest amplitudes of :T1aa    
  SYMA   SYMB   SYMI   SYMJ     A      B      I      J     VALUE
    2      0      2      0      1      0      2      0    -0.0330817753
    1      0      1      0      1      0      5      0     0.0181629339
    1      0      1      0      8      0      5      0     0.0164022427
    2      0      2      0      9      0      2      0    -0.0098077795
    1      0      1      0      6      0      3      0     0.0073992334
 Euclidian norm is :     0.0528147701
 
 Five largest amplitudes of :T1bb    
  SYMA   SYMB   SYMI   SYMJ     A      B      I      J     VALUE
    2      0      2      0      1      0      2      0    -0.0330817753
    1      0      1      0      1      0      5      0     0.0181629339
    1      0      1      0      8      0      5      0     0.0164022427
    2      0      2      0      9      0      2      0    -0.0098077795
    1      0      1      0      6      0      3      0     0.0073992334
 Euclidian norm is :     0.0528147701
 
 Five largest amplitudes of :T2aaaa  
  SYMA   SYMB   SYMI   SYMJ     A      B      I      J     VALUE
    2      1      2      1      1      8      4      4     0.0099832225
    1      1      2      2      8      4      4      3    -0.0095854406
    2      2      2      2     10      1      4      2    -0.0092294837
    2      1      2      1     10      7      4      5     0.0092130511
    2      2      1      1      6      1      4      2    -0.0084800679
 Euclidian norm is :     0.1241929712
 
 Five largest amplitudes of :T2bbbb  
  SYMA   SYMB   SYMI   SYMJ     A      B      I      J     VALUE
    2      1      2      1      1      8      4      4     0.0099832225
    1      1      2      2      8      4      4      3    -0.0095854406
    2      2      2      2     10      1      4      2    -0.0092294837
    2      1      2      1     10      7      4      5     0.0092130511
    2      2      1      1      6      1      4      2    -0.0084800679
 Euclidian norm is :     0.1241929712
 
 Five largest amplitudes of :T2abab  
  SYMA   SYMB   SYMI   SYMJ     A      B      I      J     VALUE
    2      2      1      1      1      1      5      5    -0.0951331419
    2      2      1      1      1      1      2      2    -0.0279511348
    2      2      1      1      1      1      5      2     0.0261808423
    2      2      1      1      1      1      2      5     0.0261808423
    1      1      1      1      7      7      5      5    -0.0244928407
 Euclidian norm is :     0.4077222334
 
 
      Happy Landing!
 
 
  **********************************
   Triples Contribution Calculation 
  **********************************
 
 NORB  35   34
 NOA    5    4
 NOB    5    4
 NVA   30   30
 NVB   30   30
 
 NUMBER OF IRREPS             :  2
 MULTIPLICITY                 :  1
 OVERALL SYMMETRY STATE       :  1
 METHOD                       : CCSD+T(CCSD)+<T3(1)WT1> = CCSD(T)
 TYPE OF DENOMINATOR          : DIAGONAL
 SPIN ADAPTATION             : NONE 
 CCSD RESULTS LOAD FROM FILE : RSTART
 PREFERENCE MATRIX MULT.     : NORMAL
 DENOMINATOR SHIFT FOR OCC.  :  0.00000E+00
 DENOMINATOR SHIFT FOR VIRT. :  0.00000E+00
 LEVEL OF OUTPUT PRINTING    : MINIMAL
 INPUT/OUTPUT HANDLING       : Standard SQ 
 MATRIX HANDLING             : ESSL        
 IJ CYCLE SEGMENTED          : NO          
 
 
  Work space requirements : 984580
  Allocation of work space : Done
       CCSD     =      -117.4424278671669
       T3 corr. =        -0.0133656392718
       CCSD + T3=      -117.4557935064388
  T3 energy decomposition into spin parts
  Eaaa = -3.101538659636162E-004
  Eaab = -6.372665769958696E-003
  Eabb = -6.372665769958693E-003
  Ebbb = -3.101538659636162E-004
 
 
      Happy Landing!
 
--- Stop Module: ccsdt at Sun Dec  7 11:09:54 2025 /rc=_RC_ALL_IS_WELL_ ---
*** files: xmldump
    saved to directory /home/charlie/input_examples/molcas/dimethylcarbene
--- Module ccsdt spent 14 seconds ---

.##################.
.# Happy landing! #.
.##################.

    Timing: Wall=29.21 User=7.00 System=1.11
