 argument  1 = h2o-plot.nw
                                         
                                         
 
 
             Northwest Computational Chemistry Package (NWChem) 7.2.2
             --------------------------------------------------------
 
 
                    Environmental Molecular Sciences Laboratory
                       Pacific Northwest National Laboratory
                                Richland, WA 99352
 
                              Copyright (c) 1994-2022
                       Pacific Northwest National Laboratory
                            Battelle Memorial Institute
 
             NWChem is an open-source computational chemistry package
                        distributed under the terms of the
                      Educational Community License (ECL) 2.0
             A copy of the license is included with this distribution
                              in the LICENSE.TXT file
 
                                  ACKNOWLEDGMENT
                                  --------------

            This software and its documentation were developed at the
            EMSL at Pacific Northwest National Laboratory, a multiprogram
            national laboratory, operated for the U.S. Department of Energy
            by Battelle under Contract Number DE-AC05-76RL01830. Support
            for this work was provided by the Department of Energy Office
            of Biological and Environmental Research, Office of Basic
            Energy Sciences, and the Office of Advanced Scientific Computing.


           Job information
           ---------------

    hostname        = charliebox
    program         = /apps/nwchem/bin/nwchem
    date            = Fri Oct 24 13:18:59 2025

    compiled        = Tue_Apr_23_01:04:59_2024
    source          = /apps/nwchem-7.2.2-release
    nwchem branch   = 7.2.2
    nwchem revision = N/A
    ga revision     = 5.8.0
    use scalapack   = T
    input           = h2o-plot.nw
    prefix          = water_orbitals.
    data base       = ./water_orbitals.db
    status          = startup
    nproc           =       19
    time left       =     -1s



           Memory information
           ------------------

    heap     =   65535994 doubles =    500.0 Mbytes
    stack    =   65535999 doubles =    500.0 Mbytes
    global   =  131072000 doubles =   1000.0 Mbytes (distinct from heap & stack)
    total    =  262143993 doubles =   2000.0 Mbytes
    verify   = yes
    hardfail = no 


           Directory information
           ---------------------
 
  0 permanent = .
  0 scratch   = .
 
 
 
 
                                NWChem Input Module
                                -------------------
 
 

 Scaling coordinates for geometry "geometry" by  1.889725989
 (inverse scale =  0.529177249)

 C2V symmetry detected

          ------
          auto-z
          ------
  no constraints, skipping   0.000000000000000E+000
  no constraints, skipping   0.000000000000000E+000
 
 
                             Geometry "geometry" -> ""
                             -------------------------
 
 Output coordinates in angstroms (scale by  1.889725989 to convert to a.u.)
 
  No.       Tag          Charge          X              Y              Z
 ---- ---------------- ---------- -------------- -------------- --------------
    1 O                    8.0000     0.00000000     0.00000000     0.11686760
    2 H                    1.0000    -0.76323900     0.00000000    -0.46747040
    3 H                    1.0000     0.76323900     0.00000000    -0.46747040
 
      Atomic Mass 
      ----------- 
 
      O                 15.994910
      H                  1.007825
 

 Effective nuclear repulsion energy (a.u.)       9.1548978813

            Nuclear Dipole moment (a.u.) 
            ----------------------------
        X                 Y               Z
 ---------------- ---------------- ----------------
     0.0000000000     0.0000000000     0.0000000000
 
      Symmetry information
      --------------------
 
 Group name             C2v       
 Group number             16
 Group order               4
 No. of unique centers     2
 
      Symmetry unique atoms
 
     1    2
 


                                Z-matrix (autoz)
                                -------- 

 Units are Angstrom for bonds and degrees for angles
 
      Type          Name      I     J     K     L     M      Value
      ----------- --------  ----- ----- ----- ----- ----- ----------
    1 Stretch                  1     2                       0.96124
    2 Stretch                  1     3                       0.96124
    3 Bend                     2     1     3               105.12445
 
 
            XYZ format geometry
            -------------------
     3
 geometry
 O                     0.00000000     0.00000000     0.11686760
 H                    -0.76323900     0.00000000    -0.46747040
 H                     0.76323900     0.00000000    -0.46747040
 
 ==============================================================================
                                internuclear distances
 ------------------------------------------------------------------------------
       center one      |      center two      | atomic units |  angstroms
 ------------------------------------------------------------------------------
    2 H                |   1 O                |     1.81648  |     0.96124
    3 H                |   1 O                |     1.81648  |     0.96124
 ------------------------------------------------------------------------------
                         number of included internuclear distances:          2
 ==============================================================================



 ==============================================================================
                                 internuclear angles
 ------------------------------------------------------------------------------
        center 1       |       center 2       |       center 3       |  degrees
 ------------------------------------------------------------------------------
    2 H                |   1 O                |   3 H                |   105.12
 ------------------------------------------------------------------------------
                            number of included internuclear angles:          1
 ==============================================================================



  library name resolved from: environment
  library file name is: </apps/nwchem/data/libraries/>
  


 Summary of "ao basis" -> "" (cartesian)
 ------------------------------------------------------------------------------
       Tag                 Description            Shells   Functions and Types
 ---------------- ------------------------------  ------  ---------------------
 *                           6-31G*                   on all atoms 


 
                                 NWChem DFT Module
                                 -----------------
 
 
                      Basis "ao basis" -> "ao basis" (cartesian)
                      -----
  O (Oxygen)
  ----------
            Exponent  Coefficients 
       -------------- ---------------------------------------------------------
  1 S  5.48467170E+03  0.001831
  1 S  8.25234950E+02  0.013950
  1 S  1.88046960E+02  0.068445
  1 S  5.29645000E+01  0.232714
  1 S  1.68975700E+01  0.470193
  1 S  5.79963530E+00  0.358521
 
  2 S  1.55396160E+01 -0.110778
  2 S  3.59993360E+00 -0.148026
  2 S  1.01376180E+00  1.130767
 
  3 P  1.55396160E+01  0.070874
  3 P  3.59993360E+00  0.339753
  3 P  1.01376180E+00  0.727159
 
  4 S  2.70005800E-01  1.000000
 
  5 P  2.70005800E-01  1.000000
 
  6 D  8.00000000E-01  1.000000
 
  H (Hydrogen)
  ------------
            Exponent  Coefficients 
       -------------- ---------------------------------------------------------
  1 S  1.87311370E+01  0.033495
  1 S  2.82539370E+00  0.234727
  1 S  6.40121700E-01  0.813757
 
  2 S  1.61277800E-01  1.000000
 


 Summary of "ao basis" -> "ao basis" (cartesian)
 ------------------------------------------------------------------------------
       Tag                 Description            Shells   Functions and Types
 ---------------- ------------------------------  ------  ---------------------
 O                           6-31G*                  6       15   3s2p1d
 H                           6-31G*                  2        2   2s




 Summary of "ao basis" -> "ao basis" (cartesian)
 ------------------------------------------------------------------------------
       Tag                 Description            Shells   Functions and Types
 ---------------- ------------------------------  ------  ---------------------
 O                           6-31G*                  6       15   3s2p1d
 H                           6-31G*                  2        2   2s


      Symmetry analysis of basis
      --------------------------
 
        a1         10
        a2          1
        b1          5
        b2          3
 
  Caching 1-el integrals 
 
            General Information
            -------------------
          SCF calculation type: DFT
          Wavefunction type:  closed shell.
          No. of atoms     :     3
          No. of electrons :    10
           Alpha electrons :     5
            Beta electrons :     5
          Charge           :     0
          Spin multiplicity:     1
          Use of symmetry is: on ; symmetry adaption is: on 
          Maximum number of iterations:  50
          AO basis - number of functions:    19
                     number of shells:    10
          Convergence on energy requested:  1.00D-06
          Convergence on density requested:  1.00D-05
          Convergence on gradient requested:  5.00D-04
 
              XC Information
              --------------
                         B3LYP Method XC Potential
                     Hartree-Fock (Exact) Exchange  0.200          
                        Slater Exchange Functional  0.800 local    
                    Becke 1988 Exchange Functional  0.720 non-local
              Lee-Yang-Parr Correlation Functional  0.810          
                  VWN I RPA Correlation Functional  0.190 local    
 
             Grid Information
             ----------------
          Grid used for XC integration:  fine      
          Radial quadrature: Mura-Knowles        
          Angular quadrature: Lebedev. 
          Tag              B.-S. Rad. Rad. Pts. Rad. Cut. Ang. Pts.
          ---              ---------- --------- --------- ---------
          O                   0.60       70           5.0       590
          H                   0.35       60           6.0       590
          Grid pruning is: on 
          Number of quadrature shells:   130
          Spatial weights used:  Erf1
 
          Convergence Information
          -----------------------
          Convergence aids based upon iterative change in 
          total energy or number of iterations. 
          Levelshifting, if invoked, occurs when the 
          HOMO/LUMO gap drops below (HL_TOL):  1.00D-02
          DIIS, if invoked, will attempt to extrapolate 
          using up to (NFOCK): 10 stored Fock matrices.

                    Damping( 0%)  Levelshifting(0.5)       DIIS
                  --------------- ------------------- ---------------
          dE  on:    start            ASAP                start   
          dE off:    2 iters         50 iters            50 iters 

 
      Screening Tolerance Information
      -------------------------------
          Density screening/tol_rho:  1.00D-10
          AO Gaussian exp screening on grid/accAOfunc:  14
          CD Gaussian exp screening on grid/accCDfunc:  20
          XC Gaussian exp screening on grid/accXCfunc:  20
          Schwarz screening/accCoul:  1.00D-08

 
      Superposition of Atomic Density Guess
      -------------------------------------
 
 Sum of atomic energies:         -75.75081731
 
      Non-variational initial energy
      ------------------------------

 Total energy =     -75.910999
 1-e energy   =    -121.669692
 2-e energy   =      36.603795
 HOMO         =      -0.469114
 LUMO         =       0.113482
 
 
      Symmetry analysis of molecular orbitals - initial
      -------------------------------------------------
 
  Numbering of irreducible representations: 
 
     1 a1          2 a2          3 b1          4 b2      
 
  Orbital symmetries:
 
     1 a1          2 a1          3 b1          4 a1          5 b2      
     6 a1          7 b1          8 b1          9 a1         10 b2      
    11 a1         12 b1         13 a1         14 a1         15 a2      
 
  WARNING: movecs_in_org=atomic not equal to movecs_in=./water_orbitals.movecs
   Time after variat. SCF:      5.3
   Time prior to 1st pass:      5.3

 #quartets = 1.009D+03 #integrals = 5.756D+03 #direct =  0.0% #cached =100.0%


 Integral file          = ./water_orbitals.aoints.00
 Record size in doubles =  65536        No. of integs per rec  =  43688
 Max. records in memory =      3        Max. records in file   = 224744
 No. of bits per label  =      8        No. of bits per value  =     64


File balance: exchanges=     0  moved=     0  time=   0.0


 Grid_pts file          = ./water_orbitals.gridpts.00
 Record size in doubles =  12289        No. of grid_pts per rec  =   3070
 Max. records in memory =      3        Max. recs in file   =   1198534


           Memory utilization after 1st SCF pass: 
           Heap Space remaining (MW):       65.30            65300890
          Stack Space remaining (MW):       65.54            65535764

   convergence    iter        energy       DeltaE   RMS-Dens  Diis-err    time
 ---------------- ----- ----------------- --------- --------- ---------  ------
 d= 0,ls=0.0,diis     1    -76.3720501578 -8.55D+01  4.06D-02  3.78D-01     6.9
 d= 0,ls=0.0,diis     2    -76.3681598230  3.89D-03  1.99D-02  4.56D-01     9.3
 d= 0,ls=0.0,diis     3    -76.4077912945 -3.96D-02  2.62D-03  1.18D-02    12.6
 d= 0,ls=0.0,diis     4    -76.4088076581 -1.02D-03  2.33D-04  7.16D-05    13.7
 d= 0,ls=0.0,diis     5    -76.4088146511 -6.99D-06  9.99D-06  4.11D-08    14.5
 d= 0,ls=0.0,diis     6    -76.4088146567 -5.54D-09  1.79D-06  1.16D-09    15.5


         Total DFT energy =      -76.408814656684
      One electron energy =     -123.060930173535
           Coulomb energy =       46.847737767748
    Exchange-Corr. energy =       -9.350520132177
 Nuclear repulsion energy =        9.154897881280

 Numeric. integr. density =       10.000000398206

     Total iterative time =     10.2s


 
                  Occupations of the irreducible representations
                  ----------------------------------------------
 
                     irrep           alpha         beta
                     --------     --------     --------
                     a1                3.0          3.0
                     a2                0.0          0.0
                     b1                1.0          1.0
                     b2                1.0          1.0
 
 
                       DFT Final Molecular Orbital Analysis
                       ------------------------------------
 
 Vector    1  Occ=2.000000D+00  E=-1.913610D+01  Symmetry=a1
              MO Center=  2.7D-19,  1.7D-24,  1.2D-01, r^2= 1.5D-02
   Bfn.  Coefficient  Atom+Function         Bfn.  Coefficient  Atom+Function  
  ----- ------------  ---------------      ----- ------------  ---------------
     1      0.992850  1 O  s                  2      0.026229  1 O  s          
 
 Vector    2  Occ=2.000000D+00  E=-9.998140D-01  Symmetry=a1
              MO Center= -2.0D-16, -4.4D-17, -8.8D-02, r^2= 5.0D-01
   Bfn.  Coefficient  Atom+Function         Bfn.  Coefficient  Atom+Function  
  ----- ------------  ---------------      ----- ------------  ---------------
     2      0.469306  1 O  s                  6      0.437006  1 O  s          
     1     -0.209502  1 O  s                 16      0.140406  2 H  s          
    18      0.140406  3 H  s                  5     -0.127578  1 O  pz         
     9     -0.059488  1 O  pz         
 
 Vector    3  Occ=2.000000D+00  E=-5.224589D-01  Symmetry=b1
              MO Center=  3.9D-16,  3.1D-19, -1.1D-01, r^2= 7.8D-01
   Bfn.  Coefficient  Atom+Function         Bfn.  Coefficient  Atom+Function  
  ----- ------------  ---------------      ----- ------------  ---------------
     3      0.517784  1 O  px                 7      0.267221  1 O  px         
    16     -0.238800  2 H  s                 18      0.238800  3 H  s          
    17     -0.138769  2 H  s                 19      0.138769  3 H  s          
    12     -0.070932  1 O  dxz        
 
 Vector    4  Occ=2.000000D+00  E=-3.696911D-01  Symmetry=a1
              MO Center=  5.8D-18,  1.5D-16,  2.0D-01, r^2= 6.9D-01
   Bfn.  Coefficient  Atom+Function         Bfn.  Coefficient  Atom+Function  
  ----- ------------  ---------------      ----- ------------  ---------------
     5      0.554598  1 O  pz                 6      0.407681  1 O  s          
     9      0.375888  1 O  pz                 2      0.175373  1 O  s          
    16     -0.141696  2 H  s                 18     -0.141696  3 H  s          
    17     -0.111722  2 H  s                 19     -0.111722  3 H  s          
     1     -0.087232  1 O  s                 15     -0.052302  1 O  dzz        
 
 Vector    5  Occ=2.000000D+00  E=-2.912268D-01  Symmetry=b2
              MO Center=  2.4D-17,  8.0D-16,  9.6D-02, r^2= 6.0D-01
   Bfn.  Coefficient  Atom+Function         Bfn.  Coefficient  Atom+Function  
  ----- ------------  ---------------      ----- ------------  ---------------
     4      0.644235  1 O  py                 8      0.506418  1 O  py         
    14     -0.061402  1 O  dyz        
 
 Vector    6  Occ=0.000000D+00  E= 6.486728D-02  Symmetry=a1
              MO Center= -1.0D-16, -6.9D-16, -6.1D-01, r^2= 2.4D+00
   Bfn.  Coefficient  Atom+Function         Bfn.  Coefficient  Atom+Function  
  ----- ------------  ---------------      ----- ------------  ---------------
     6      1.278282  1 O  s                 17     -0.978092  2 H  s          
    19     -0.978092  3 H  s                  9     -0.471222  1 O  pz         
     5     -0.274572  1 O  pz                 2      0.119696  1 O  s          
     1     -0.101646  1 O  s                 16     -0.095472  2 H  s          
    18     -0.095472  3 H  s                 13     -0.058747  1 O  dyy        
 
 Vector    7  Occ=0.000000D+00  E= 1.511577D-01  Symmetry=b1
              MO Center= -1.3D-16, -1.7D-19, -5.6D-01, r^2= 2.5D+00
   Bfn.  Coefficient  Atom+Function         Bfn.  Coefficient  Atom+Function  
  ----- ------------  ---------------      ----- ------------  ---------------
    17      1.292051  2 H  s                 19     -1.292051  3 H  s          
     7      0.766206  1 O  px                 3      0.410505  1 O  px         
    16      0.102636  2 H  s                 18     -0.102636  3 H  s          
    12     -0.033086  1 O  dxz        
 
 Vector    8  Occ=0.000000D+00  E= 7.814937D-01  Symmetry=b1
              MO Center=  8.1D-16, -6.3D-17, -1.3D-01, r^2= 1.6D+00
   Bfn.  Coefficient  Atom+Function         Bfn.  Coefficient  Atom+Function  
  ----- ------------  ---------------      ----- ------------  ---------------
    16      0.842521  2 H  s                 18     -0.842521  3 H  s          
    17     -0.625893  2 H  s                 19      0.625893  3 H  s          
     7      0.461443  1 O  px                12      0.343737  1 O  dxz        
     3      0.174953  1 O  px         
 
 Vector    9  Occ=0.000000D+00  E= 8.641958D-01  Symmetry=a1
              MO Center= -4.2D-16, -8.7D-16, -2.1D-01, r^2= 1.3D+00
   Bfn.  Coefficient  Atom+Function         Bfn.  Coefficient  Atom+Function  
  ----- ------------  ---------------      ----- ------------  ---------------
    16      0.721301  2 H  s                 18      0.721301  3 H  s          
     5      0.696035  1 O  pz                17     -0.542162  2 H  s          
    19     -0.542162  3 H  s                  9     -0.359003  1 O  pz         
    10      0.163767  1 O  dxx                2     -0.132476  1 O  s          
    13     -0.119951  1 O  dyy                6      0.103901  1 O  s          
 
 Vector   10  Occ=0.000000D+00  E= 8.910946D-01  Symmetry=b2
              MO Center=  1.1D-17,  1.7D-15,  1.1D-01, r^2= 1.1D+00
   Bfn.  Coefficient  Atom+Function         Bfn.  Coefficient  Atom+Function  
  ----- ------------  ---------------      ----- ------------  ---------------
     8     -1.038454  1 O  py                 4      0.959662  1 O  py         
    14      0.027802  1 O  dyz        
 
 Vector   11  Occ=0.000000D+00  E= 8.944886D-01  Symmetry=a1
              MO Center=  1.5D-16, -8.8D-16,  3.2D-01, r^2= 1.4D+00
   Bfn.  Coefficient  Atom+Function         Bfn.  Coefficient  Atom+Function  
  ----- ------------  ---------------      ----- ------------  ---------------
     6      1.327621  1 O  s                  9      0.856279  1 O  pz         
     2     -0.802077  1 O  s                  5     -0.577426  1 O  pz         
    16      0.466650  2 H  s                 18      0.466650  3 H  s          
    17     -0.352253  2 H  s                 19     -0.352253  3 H  s          
    13     -0.316498  1 O  dyy               15     -0.271233  1 O  dzz        
 
 Vector   12  Occ=0.000000D+00  E= 1.068928D+00  Symmetry=b1
              MO Center= -6.3D-16,  3.0D-32,  9.4D-02, r^2= 1.5D+00
   Bfn.  Coefficient  Atom+Function         Bfn.  Coefficient  Atom+Function  
  ----- ------------  ---------------      ----- ------------  ---------------
     7      1.641214  1 O  px                 3     -0.991560  1 O  px         
    17      0.942489  2 H  s                 19     -0.942489  3 H  s          
 
 Vector   13  Occ=0.000000D+00  E= 1.189391D+00  Symmetry=a1
              MO Center= -8.6D-16,  2.2D-17, -3.7D-01, r^2= 1.4D+00
   Bfn.  Coefficient  Atom+Function         Bfn.  Coefficient  Atom+Function  
  ----- ------------  ---------------      ----- ------------  ---------------
     6      3.653641  1 O  s                  2     -1.482757  1 O  s          
     9     -1.080213  1 O  pz                17     -0.799452  2 H  s          
    19     -0.799452  3 H  s                 10     -0.658100  1 O  dxx        
     5      0.396050  1 O  pz                15     -0.391691  1 O  dzz        
    16     -0.326414  2 H  s                 18     -0.326414  3 H  s          
 
 Vector   14  Occ=0.000000D+00  E= 1.731861D+00  Symmetry=a1
              MO Center=  1.5D-17, -2.2D-16,  1.7D-01, r^2= 6.2D-01
   Bfn.  Coefficient  Atom+Function         Bfn.  Coefficient  Atom+Function  
  ----- ------------  ---------------      ----- ------------  ---------------
    15      1.011269  1 O  dzz               10     -0.571749  1 O  dxx        
    13     -0.371197  1 O  dyy                6     -0.260372  1 O  s          
     9      0.144673  1 O  pz                 2      0.091784  1 O  s          
    16      0.085616  2 H  s                 18      0.085616  3 H  s          
    17      0.043172  2 H  s                 19      0.043172  3 H  s          
 
 Vector   15  Occ=0.000000D+00  E= 1.743579D+00  Symmetry=a2
              MO Center=  3.7D-16,  6.3D-17,  1.2D-01, r^2= 6.1D-01
   Bfn.  Coefficient  Atom+Function         Bfn.  Coefficient  Atom+Function  
  ----- ------------  ---------------      ----- ------------  ---------------
    11      1.732051  1 O  dxy        
 
 Vector   16  Occ=0.000000D+00  E= 1.780418D+00  Symmetry=b2
              MO Center= -4.1D-16, -2.3D-18,  1.4D-01, r^2= 6.1D-01
   Bfn.  Coefficient  Atom+Function         Bfn.  Coefficient  Atom+Function  
  ----- ------------  ---------------      ----- ------------  ---------------
    14      1.730739  1 O  dyz                8      0.034648  1 O  py         
 
 Vector   17  Occ=0.000000D+00  E= 2.290238D+00  Symmetry=a1
              MO Center=  5.9D-17,  7.8D-18,  4.4D-03, r^2= 8.3D-01
   Bfn.  Coefficient  Atom+Function         Bfn.  Coefficient  Atom+Function  
  ----- ------------  ---------------      ----- ------------  ---------------
     6      1.551524  1 O  s                 13     -1.124359  1 O  dyy        
    16     -0.822943  2 H  s                 18     -0.822943  3 H  s          
    10      0.764983  1 O  dxx                9     -0.732561  1 O  pz         
     2     -0.509098  1 O  s                 17     -0.143465  2 H  s          
    19     -0.143465  3 H  s                  5      0.054287  1 O  pz         
 
 Vector   18  Occ=0.000000D+00  E= 2.592036D+00  Symmetry=b1
              MO Center=  1.3D-16, -2.2D-20,  6.3D-02, r^2= 8.7D-01
   Bfn.  Coefficient  Atom+Function         Bfn.  Coefficient  Atom+Function  
  ----- ------------  ---------------      ----- ------------  ---------------
    12      2.216405  1 O  dxz               16     -0.942627  2 H  s          
    18      0.942627  3 H  s                  7     -0.877584  1 O  px         
    17      0.037017  2 H  s                 19     -0.037017  3 H  s          
     3      0.030873  1 O  px         
 
 Vector   19  Occ=0.000000D+00  E= 3.558375D+00  Symmetry=a1
              MO Center= -4.1D-16, -4.2D-20,  1.2D-01, r^2= 1.0D+00
   Bfn.  Coefficient  Atom+Function         Bfn.  Coefficient  Atom+Function  
  ----- ------------  ---------------      ----- ------------  ---------------
     6      3.712146  1 O  s                 13     -1.579183  1 O  dyy        
    15     -1.555215  1 O  dzz               10     -1.532688  1 O  dxx        
    17     -0.563550  2 H  s                 19     -0.563550  3 H  s          
     1     -0.468920  1 O  s                  9     -0.328923  1 O  pz         
     2      0.281230  1 O  s                 16      0.123207  2 H  s          
 

 center of mass
 --------------
 x =   0.00000000 y =   0.00000000 z =   0.09726698

 moments of inertia (a.u.)
 ------------------
           2.182707989991           0.000000000000           0.000000000000
           0.000000000000           6.375795267084           0.000000000000
           0.000000000000           0.000000000000           4.193087277093
 
     Multipole analysis of the density
     ---------------------------------
 
     L   x y z        total         alpha         beta         nuclear
     -   - - -        -----         -----         ----         -------
     0   0 0 0     -0.000000     -5.000000     -5.000000     10.000000
 
     1   1 0 0     -0.000000     -0.000000     -0.000000      0.000000
     1   0 1 0      0.000000      0.000000      0.000000      0.000000
     1   0 0 1     -0.814487     -0.407243     -0.407243      0.000000
 
     2   2 0 0     -3.145724     -3.653128     -3.653128      4.160531
     2   1 1 0      0.000000      0.000000      0.000000      0.000000
     2   1 0 1     -0.000000     -0.000000     -0.000000      0.000000
     2   0 2 0     -5.344589     -2.672295     -2.672295      0.000000
     2   0 1 1      0.000000      0.000000      0.000000      0.000000
     2   0 0 2     -4.478567     -3.214758     -3.214758      1.950949
 

 Parallel integral file used      19 records with       0 large values


 Task  times  cpu:       11.8s     wall:       15.4s
 
 
                                NWChem Input Module
                                -------------------
 
 
 
  Limits (a.u.) specified for the density plot:
  ---------------------------------------------
 
        From        To      # of spacings
X    -5.66918     5.66918        30
Y    -5.66918     5.66918        30
Z    -5.66918     5.66918        30
 
  Total number of grid points =                  29791
 
  1-st set of MOs      : water_orbitals.movecs
  Output is written to : h2o_mo_001.cube
  Type of picture      : ORBITAL VIEW
  Format used          : Gaussian9x Cube
  Spin                 : ALPHA   
  The orbital   1 is plotted
  Grid minima (bohr)  -5.669180 -5.669180 -5.669180
  Grid maxima (bohr)   5.669180  5.669180  5.669180
  max element    3.55213980204636     

 Task  times  cpu:        1.9s     wall:        2.1s
 
 
                                NWChem Input Module
                                -------------------
 
 
 
  Limits (a.u.) specified for the density plot:
  ---------------------------------------------
 
        From        To      # of spacings
X    -5.66918     5.66918        30
Y    -5.66918     5.66918        30
Z    -5.66918     5.66918        30
 
  Total number of grid points =                  29791
 
  1-st set of MOs      : water_orbitals.movecs
  Output is written to : h2o_mo_005.cube
  Type of picture      : ORBITAL VIEW
  Format used          : Gaussian9x Cube
  Spin                 : ALPHA   
  The orbital   5 is plotted
  Grid minima (bohr)  -5.669180 -5.669180 -5.669180
  Grid maxima (bohr)   5.669180  5.669180  5.669180
  max element   0.639926832968202     

 Task  times  cpu:        0.7s     wall:        1.0s
 
 
                                NWChem Input Module
                                -------------------
 
 
 
  Limits (a.u.) specified for the density plot:
  ---------------------------------------------
 
        From        To      # of spacings
X    -5.66918     5.66918        30
Y    -5.66918     5.66918        30
Z    -5.66918     5.66918        30
 
  Total number of grid points =                  29791
 
  1-st set of MOs      : water_orbitals.movecs
  Output is written to : h2o_mo_007.cube
  Type of picture      : ORBITAL VIEW
  Format used          : Gaussian9x Cube
  Spin                 : ALPHA   
  The orbital   7 is plotted
  Grid minima (bohr)  -5.669180 -5.669180 -5.669180
  Grid maxima (bohr)   5.669180  5.669180  5.669180
  max element   0.402155107768422     

 Task  times  cpu:        0.0s     wall:        0.0s
 
 
                                NWChem Input Module
                                -------------------
 
 
 Summary of allocated global arrays
-----------------------------------
  No active global arrays


MA_summarize_allocated_blocks: starting scan ...
MA_summarize_allocated_blocks: scan completed: 0 heap blocks, 0 stack blocks
MA usage statistics:

	allocation statistics:
					      heap	     stack
					      ----	     -----
	current number of blocks	         0	         0
	maximum number of blocks	        22	        57
	current total bytes		         0	         0
	maximum total bytes		   1880744	  89018584
	maximum total K-bytes		      1881	     89019
	maximum total M-bytes		         2	        90
 
 
                                     CITATION
                                     --------
                Please cite the following reference when publishing
                           results obtained with NWChem:
 
          E. Apra, E. J. Bylaska, W. A. de Jong, N. Govind, K. Kowalski,
       T. P. Straatsma, M. Valiev, H. J. J. van Dam, Y. Alexeev, J. Anchell,
       V. Anisimov, F. W. Aquino, R. Atta-Fynn, J. Autschbach, N. P. Bauman,
     J. C. Becca, D. E. Bernholdt, K. Bhaskaran-Nair, S. Bogatko, P. Borowski,
         J. Boschen, J. Brabec, A. Bruner, E. Cauet, Y. Chen, G. N. Chuev,
      C. J. Cramer, J. Daily, M. J. O. Deegan, T. H. Dunning Jr., M. Dupuis,
   K. G. Dyall, G. I. Fann, S. A. Fischer, A. Fonari, H. Fruchtl, L. Gagliardi,
      J. Garza, N. Gawande, S. Ghosh, K. Glaesemann, A. W. Gotz, J. Hammond,
       V. Helms, E. D. Hermes, K. Hirao, S. Hirata, M. Jacquelin, L. Jensen,
   B. G. Johnson, H. Jonsson, R. A. Kendall, M. Klemm, R. Kobayashi, V. Konkov,
      S. Krishnamoorthy, M. Krishnan, Z. Lin, R. D. Lins, R. J. Littlefield,
      A. J. Logsdail, K. Lopata, W. Ma, A. V. Marenich, J. Martin del Campo,
   D. Mejia-Rodriguez, J. E. Moore, J. M. Mullin, T. Nakajima, D. R. Nascimento,
    J. A. Nichols, P. J. Nichols, J. Nieplocha, A. Otero-de-la-Roza, B. Palmer,
    A. Panyala, T. Pirojsirikul, B. Peng, R. Peverati, J. Pittner, L. Pollack,
   R. M. Richard, P. Sadayappan, G. C. Schatz, W. A. Shelton, D. W. Silverstein,
   D. M. A. Smith, T. A. Soares, D. Song, M. Swart, H. L. Taylor, G. S. Thomas,
            V. Tipparaju, D. G. Truhlar, K. Tsemekhman, T. Van Voorhis,
      A. Vazquez-Mayagoitia, P. Verma, O. Villa, A. Vishnu, K. D. Vogiatzis,
        D. Wang, J. H. Weare, M. J. Williamson, T. L. Windus, K. Wolinski,
        A. T. Wong, Q. Wu, C. Yang, Q. Yu, M. Zacharias, Z. Zhang, Y. Zhao,
                                and R. J. Harrison
                        "NWChem: Past, present, and future
                         J. Chem. Phys. 152, 184102 (2020)
                               doi:10.1063/5.0004997
 
                                      AUTHORS
                                      -------
  E. Apra, E. J. Bylaska, N. Govind, K. Kowalski, M. Valiev, D. Mejia-Rodriguez,
       A. Kunitsa, N. P. Bauman, A. Panyala, W. A. de Jong, T. P. Straatsma,
   H. J. J. van Dam, D. Wang, T. L. Windus, J. Hammond, J. Autschbach, A. Woods,
    K. Bhaskaran-Nair, J. Brabec, K. Lopata, S. A. Fischer, S. Krishnamoorthy,
     M. Jacquelin, W. Ma, M. Klemm, O. Villa, Y. Chen, V. Anisimov, F. Aquino,
     S. Hirata, M. T. Hackler, E. Hermes, L. Jensen, J. E. Moore, J. C. Becca,
      V. Konjkov, T. Risthaus, M. Malagoli, A. Marenich, A. Otero-de-la-Roza,
        J. Mullin, P. Nichols, R. Peverati, J. Pittner, Y. Zhao, P.-D. Fan,
        A. Fonari, M. J. Williamson, R. J. Harrison, J. R. Rehr, M. Dupuis,
     D. Silverstein, D. M. A. Smith, J. Nieplocha, V. Tipparaju, M. Krishnan,
     B. E. Van Kuiken, A. Vazquez-Mayagoitia, M. Swart, Q. Wu, T. Van Voorhis,
     A. A. Auer, M. Nooijen, L. D. Crosby, E. Brown, G. Cisneros, G. I. Fann,
   H. Fruchtl, J. Garza, K. Hirao, R. A. Kendall, J. A. Nichols, K. Tsemekhman,
    K. Wolinski, J. Anchell, D. E. Bernholdt, P. Borowski, T. Clark, D. Clerc,
   H. Dachsel, M. J. O. Deegan, K. Dyall, D. Elwood, E. Glendening, M. Gutowski,
   A. C. Hess, J. Jaffe, B. G. Johnson, J. Ju, R. Kobayashi, R. Kutteh, Z. Lin,
   R. Littlefield, X. Long, B. Meng, T. Nakajima, S. Niu, L. Pollack, M. Rosing,
   K. Glaesemann, G. Sandrone, M. Stave, H. Taylor, G. Thomas, J. H. van Lenthe,
                               A. T. Wong, Z. Zhang.

 Total times  cpu:       14.5s     wall:       18.7s
