 argument  1 = n2-ccsd-charge.nw
                                         
                                         
 
 
             Northwest Computational Chemistry Package (NWChem) 7.2.2
             --------------------------------------------------------
 
 
                    Environmental Molecular Sciences Laboratory
                       Pacific Northwest National Laboratory
                                Richland, WA 99352
 
                              Copyright (c) 1994-2022
                       Pacific Northwest National Laboratory
                            Battelle Memorial Institute
 
             NWChem is an open-source computational chemistry package
                        distributed under the terms of the
                      Educational Community License (ECL) 2.0
             A copy of the license is included with this distribution
                              in the LICENSE.TXT file
 
                                  ACKNOWLEDGMENT
                                  --------------

            This software and its documentation were developed at the
            EMSL at Pacific Northwest National Laboratory, a multiprogram
            national laboratory, operated for the U.S. Department of Energy
            by Battelle under Contract Number DE-AC05-76RL01830. Support
            for this work was provided by the Department of Energy Office
            of Biological and Environmental Research, Office of Basic
            Energy Sciences, and the Office of Advanced Scientific Computing.


           Job information
           ---------------

    hostname        = charliebox
    program         = /apps/nwchem/bin/nwchem
    date            = Fri Oct 24 13:22:17 2025

    compiled        = Tue_Apr_23_01:04:59_2024
    source          = /apps/nwchem-7.2.2-release
    nwchem branch   = 7.2.2
    nwchem revision = N/A
    ga revision     = 5.8.0
    use scalapack   = T
    input           = n2-ccsd-charge.nw
    prefix          = n2.
    data base       = ./n2.db
    status          = startup
    nproc           =       19
    time left       =     -1s



           Memory information
           ------------------

    heap     =   26214394 doubles =    200.0 Mbytes
    stack    =   26214399 doubles =    200.0 Mbytes
    global   =   52428800 doubles =    400.0 Mbytes (distinct from heap & stack)
    total    =  104857593 doubles =    800.0 Mbytes
    verify   = yes
    hardfail = no 


           Directory information
           ---------------------
 
  0 permanent = .
  0 scratch   = .
 
 
 
 
                                NWChem Input Module
                                -------------------
 
 

 Scaling coordinates for geometry "geometry" by  1.889725989
 (inverse scale =  0.529177249)

 Turning off AUTOSYM since
 SYMMETRY directive was detected!
 

          ------
          auto-z
          ------
  no constraints, skipping   0.000000000000000E+000
  no constraints, skipping   0.000000000000000E+000
 
 
                             Geometry "geometry" -> ""
                             -------------------------
 
 Output coordinates in angstroms (scale by  1.889725989 to convert to a.u.)
 
  No.       Tag          Charge          X              Y              Z
 ---- ---------------- ---------- -------------- -------------- --------------
    1 n                    7.0000     0.00000000     0.00000000     0.53879155
    2 n                    7.0000     0.00000000     0.00000000    -0.53879155
 
      Atomic Mass 
      ----------- 
 
      n                 14.003070
 

 Effective nuclear repulsion energy (a.u.)      24.0628172444

            Nuclear Dipole moment (a.u.) 
            ----------------------------
        X                 Y               Z
 ---------------- ---------------- ----------------
     0.0000000000     0.0000000000     0.0000000000
 
      Symmetry information
      --------------------
 
 Group name             C2v       
 Group number             16
 Group order               4
 No. of unique centers     2
 
      Symmetry unique atoms
 
     1    2
 


                                Z-matrix (autoz)
                                -------- 

 Units are Angstrom for bonds and degrees for angles
 
      Type          Name      I     J     K     L     M      Value
      ----------- --------  ----- ----- ----- ----- ----- ----------
    1 Stretch                  1     2                       1.07758
 
 
            XYZ format geometry
            -------------------
     2
 geometry
 n                     0.00000000     0.00000000     0.53879155
 n                     0.00000000     0.00000000    -0.53879155
 
 ==============================================================================
                                internuclear distances
 ------------------------------------------------------------------------------
       center one      |      center two      | atomic units |  angstroms
 ------------------------------------------------------------------------------
    2 n                |   1 n                |     2.03634  |     1.07758
 ------------------------------------------------------------------------------
                         number of included internuclear distances:          1
 ==============================================================================



  library name resolved from: environment
  library file name is: </apps/nwchem/data/libraries/>
  
                      Basis "ao basis" -> "" (cartesian)
                      -----
  n (Nitrogen)
  ------------
            Exponent  Coefficients 
       -------------- ---------------------------------------------------------
  1 S  9.04600000E+03  0.000700
  1 S  1.35700000E+03  0.005389
  1 S  3.09300000E+02  0.027406
  1 S  8.77300000E+01  0.103207
  1 S  2.85600000E+01  0.278723
  1 S  1.02100000E+01  0.448540
  1 S  3.83800000E+00  0.278238
  1 S  7.46600000E-01  0.015440
 
  2 S  9.04600000E+03 -0.000153
  2 S  1.35700000E+03 -0.001208
  2 S  3.09300000E+02 -0.005992
  2 S  8.77300000E+01 -0.024544
  2 S  2.85600000E+01 -0.067459
  2 S  1.02100000E+01 -0.158078
  2 S  3.83800000E+00 -0.121831
  2 S  7.46600000E-01  0.549003
 
  3 S  2.24800000E-01  1.000000
 
  4 P  1.35500000E+01  0.039919
  4 P  2.91700000E+00  0.217169
  4 P  7.97300000E-01  0.510319
 
  5 P  2.18500000E-01  1.000000
 
  6 D  8.17000000E-01  1.000000
 


 Summary of "ao basis" -> "" (cartesian)
 ------------------------------------------------------------------------------
       Tag                 Description            Shells   Functions and Types
 ---------------- ------------------------------  ------  ---------------------
 n                          cc-pvdz                  6       15   3s2p1d


                                 NWChem SCF Module
                                 -----------------
 
 

  ao basis        = "ao basis"
  functions       =    30
  atoms           =     2
  closed shells   =     7
  open shells     =     0
  charge          =   0.00
  wavefunction    = RHF 
  input vectors   = atomic
  output vectors  = ./n2.movecs
  use symmetry    = T
  symmetry adapt  = T


 Summary of "ao basis" -> "ao basis" (cartesian)
 ------------------------------------------------------------------------------
       Tag                 Description            Shells   Functions and Types
 ---------------- ------------------------------  ------  ---------------------
 n                          cc-pvdz                  6       15   3s2p1d


      Symmetry analysis of basis
      --------------------------
 
        a1         16
        a2          2
        b1          6
        b2          6
 

 Forming initial guess at       3.2s

 
      Superposition of Atomic Density Guess
      -------------------------------------
 
 Sum of atomic energies:        -108.60004629
 
      Non-variational initial energy
      ------------------------------

 Total energy =    -109.181382
 1-e energy   =    -194.796865
 2-e energy   =      61.552665
 HOMO         =      -0.422231
 LUMO         =       0.043667
 
 
      Symmetry analysis of molecular orbitals - initial
      -------------------------------------------------
 

 !! scf_movecs_sym_adapt:   16 vectors were symmetry contaminated

  Symmetry fudging

 !! scf_movecs_sym_adapt:   16 vectors were symmetry contaminated

  Numbering of irreducible representations: 
 
     1 a1          2 a2          3 b1          4 b2      
 
  Orbital symmetries:
 
     1 a1          2 a1          3 a1          4 a1          5 b1      
     6 b2          7 a1          8 b1          9 b2         10 a1      
    11 a1         12 b1         13 b2         14 a1         15 b2      
    16 b1         17 a1      
 

 Starting SCF solution at       6.3s



 ----------------------------------------------
         Quadratically convergent ROHF

 Convergence threshold     :          1.000E-04
 Maximum no. of iterations :           30
 Final Fock-matrix accuracy:          1.000E-07
 ----------------------------------------------


 #quartets = 3.081D+03 #integrals = 3.370D+04 #direct =  0.0% #cached =100.0%


 Integral file          = ./n2.aoints.00
 Record size in doubles =  65536        No. of integs per rec  =  43688
 Max. records in memory =      3        Max. records in file   = 224744
 No. of bits per label  =      8        No. of bits per value  =     64


File balance: exchanges=     0  moved=     0  time=   0.0


              iter       energy          gnorm     gmax       time
             ----- ------------------- --------- --------- --------
                 1     -108.9448513410  4.18D-01  1.88D-01      5.8
                 2     -108.9554437065  1.00D-01  4.86D-02      7.0
                 3     -108.9561229786  1.58D-03  9.45D-04      8.8
                 4     -108.9561231165  6.08D-06  4.21D-06     10.6


       Final RHF  results 
       ------------------ 

         Total SCF energy =   -108.956123116484
      One-electron energy =   -195.085335620611
      Two-electron energy =     62.066395259698
 Nuclear repulsion energy =     24.062817244429

        Time for solution =      6.8s


 
       Symmetry analysis of molecular orbitals - final
       -----------------------------------------------
 
  Numbering of irreducible representations: 
 
     1 a1          2 a2          3 b1          4 b2      
 
  Orbital symmetries:
 
     1 a1          2 a1          3 a1          4 a1          5 a1      
     6 b1          7 b2          8 b1          9 b2         10 a1      
    11 a1         12 b1         13 b2         14 a1         15 b1      
    16 b2         17 a1      
 
             Final eigenvalues
             -----------------

              1      
    1  -15.6814
    2  -15.6775
    3   -1.4865
    4   -0.7680
    5   -0.6285
    6   -0.6172
    7   -0.6172
    8    0.1860
    9    0.1860
   10    0.5990
   11    0.7980
   12    0.8659
   13    0.8659
   14    0.8823
   15    1.0554
   16    1.0554
   17    1.1346
 
                       ROHF Final Molecular Orbital Analysis
                       -------------------------------------
 
 Vector    2  Occ=2.000000D+00  E=-1.567750D+01  Symmetry=a1
              MO Center= -4.0D-20, -2.0D-18,  5.1D-13, r^2= 3.1D-01
   Bfn.  Coefficient  Atom+Function         Bfn.  Coefficient  Atom+Function  
  ----- ------------  ---------------      ----- ------------  ---------------
     1      0.708337  1 N  s                 16     -0.708337  2 N  s          
 
 Vector    3  Occ=2.000000D+00  E=-1.486456D+00  Symmetry=a1
              MO Center=  6.4D-18,  2.8D-19,  3.4D-18, r^2= 4.3D-01
   Bfn.  Coefficient  Atom+Function         Bfn.  Coefficient  Atom+Function  
  ----- ------------  ---------------      ----- ------------  ---------------
     2      0.331384  1 N  s                 17      0.331384  2 N  s          
     6     -0.222268  1 N  pz                21      0.222268  2 N  pz         
     3      0.183742  1 N  s                 18      0.183742  2 N  s          
 
 Vector    4  Occ=2.000000D+00  E=-7.680312D-01  Symmetry=a1
              MO Center=  1.7D-17, -7.2D-17, -7.9D-15, r^2= 1.3D+00
   Bfn.  Coefficient  Atom+Function         Bfn.  Coefficient  Atom+Function  
  ----- ------------  ---------------      ----- ------------  ---------------
     3      0.434583  1 N  s                 18     -0.434583  2 N  s          
     2      0.324062  1 N  s                 17     -0.324062  2 N  s          
     6      0.220831  1 N  pz                21      0.220831  2 N  pz         
 
 Vector    5  Occ=2.000000D+00  E=-6.285062D-01  Symmetry=a1
              MO Center=  2.8D-17,  4.5D-18,  4.9D-15, r^2= 1.2D+00
   Bfn.  Coefficient  Atom+Function         Bfn.  Coefficient  Atom+Function  
  ----- ------------  ---------------      ----- ------------  ---------------
     6      0.453089  1 N  pz                21     -0.453089  2 N  pz         
     3      0.345356  1 N  s                 18      0.345356  2 N  s          
     9      0.209617  1 N  pz                24     -0.209617  2 N  pz         
 
 Vector    6  Occ=2.000000D+00  E=-6.172011D-01  Symmetry=b1
              MO Center= -7.8D-18,  7.1D-34,  4.5D-16, r^2= 8.9D-01
   Bfn.  Coefficient  Atom+Function         Bfn.  Coefficient  Atom+Function  
  ----- ------------  ---------------      ----- ------------  ---------------
     4      0.428171  1 N  px                19      0.428171  2 N  px         
     7      0.252252  1 N  px                22      0.252252  2 N  px         
 
 Vector    7  Occ=2.000000D+00  E=-6.172011D-01  Symmetry=b2
              MO Center= -3.1D-34,  6.8D-19,  5.8D-17, r^2= 8.9D-01
   Bfn.  Coefficient  Atom+Function         Bfn.  Coefficient  Atom+Function  
  ----- ------------  ---------------      ----- ------------  ---------------
     5      0.428171  1 N  py                20      0.428171  2 N  py         
     8      0.252252  1 N  py                23      0.252252  2 N  py         
 
 Vector    8  Occ=0.000000D+00  E= 1.859870D-01  Symmetry=b1
              MO Center= -1.1D-17,  5.6D-33, -4.4D-16, r^2= 1.4D+00
   Bfn.  Coefficient  Atom+Function         Bfn.  Coefficient  Atom+Function  
  ----- ------------  ---------------      ----- ------------  ---------------
     7      0.695267  1 N  px                22     -0.695267  2 N  px         
     4      0.425228  1 N  px                19     -0.425228  2 N  px         
 
 Vector    9  Occ=0.000000D+00  E= 1.859870D-01  Symmetry=b2
              MO Center=  6.1D-33,  7.4D-17, -9.4D-17, r^2= 1.4D+00
   Bfn.  Coefficient  Atom+Function         Bfn.  Coefficient  Atom+Function  
  ----- ------------  ---------------      ----- ------------  ---------------
     8      0.695267  1 N  py                23     -0.695267  2 N  py         
     5      0.425228  1 N  py                20     -0.425228  2 N  py         
 
 Vector   10  Occ=0.000000D+00  E= 5.989657D-01  Symmetry=a1
              MO Center=  6.5D-17,  4.0D-16,  1.0D-13, r^2= 3.3D+00
   Bfn.  Coefficient  Atom+Function         Bfn.  Coefficient  Atom+Function  
  ----- ------------  ---------------      ----- ------------  ---------------
     3      4.049260  1 N  s                 18     -4.049260  2 N  s          
     9     -2.679456  1 N  pz                24     -2.679456  2 N  pz         
     2      0.176259  1 N  s                 17     -0.176259  2 N  s          
 
 Vector   11  Occ=0.000000D+00  E= 7.980336D-01  Symmetry=a1
              MO Center= -1.2D-15,  5.3D-16,  4.3D-14, r^2= 1.8D+00
   Bfn.  Coefficient  Atom+Function         Bfn.  Coefficient  Atom+Function  
  ----- ------------  ---------------      ----- ------------  ---------------
     9      0.871304  1 N  pz                24     -0.871304  2 N  pz         
     2      0.522503  1 N  s                 17      0.522503  2 N  s          
     3     -0.421146  1 N  s                 18     -0.421146  2 N  s          
     6     -0.336772  1 N  pz                21      0.336772  2 N  pz         
     1      0.272862  1 N  s                 16      0.272862  2 N  s          
 
 Vector   12  Occ=0.000000D+00  E= 8.659339D-01  Symmetry=b1
              MO Center=  1.2D-15, -2.0D-32, -2.8D-15, r^2= 1.7D+00
   Bfn.  Coefficient  Atom+Function         Bfn.  Coefficient  Atom+Function  
  ----- ------------  ---------------      ----- ------------  ---------------
     4      0.635703  1 N  px                19      0.635703  2 N  px         
     7     -0.619273  1 N  px                22     -0.619273  2 N  px         
    12     -0.179961  1 N  dxz               27      0.179961  2 N  dxz        
 
 Vector   13  Occ=0.000000D+00  E= 8.659339D-01  Symmetry=b2
              MO Center=  8.6D-33, -5.3D-16, -2.7D-16, r^2= 1.7D+00
   Bfn.  Coefficient  Atom+Function         Bfn.  Coefficient  Atom+Function  
  ----- ------------  ---------------      ----- ------------  ---------------
     5      0.635703  1 N  py                20      0.635703  2 N  py         
     8     -0.619273  1 N  py                23     -0.619273  2 N  py         
    14     -0.179961  1 N  dyz               29      0.179961  2 N  dyz        
 
 Vector   14  Occ=0.000000D+00  E= 8.822551D-01  Symmetry=a1
              MO Center= -5.9D-17,  2.1D-18, -2.3D-13, r^2= 2.4D+00
   Bfn.  Coefficient  Atom+Function         Bfn.  Coefficient  Atom+Function  
  ----- ------------  ---------------      ----- ------------  ---------------
     3      1.079925  1 N  s                 18      1.079925  2 N  s          
     2     -0.709332  1 N  s                 17     -0.709332  2 N  s          
     9      0.447009  1 N  pz                24     -0.447009  2 N  pz         
     6     -0.408309  1 N  pz                21      0.408309  2 N  pz         
     1     -0.324251  1 N  s                 16     -0.324251  2 N  s          
 
 Vector   15  Occ=0.000000D+00  E= 1.055369D+00  Symmetry=b1
              MO Center= -8.0D-17, -2.1D-33,  2.9D-15, r^2= 1.9D+00
   Bfn.  Coefficient  Atom+Function         Bfn.  Coefficient  Atom+Function  
  ----- ------------  ---------------      ----- ------------  ---------------
     7      1.170439  1 N  px                22     -1.170439  2 N  px         
     4     -0.734133  1 N  px                19      0.734133  2 N  px         
 
 Vector   16  Occ=0.000000D+00  E= 1.055369D+00  Symmetry=b2
              MO Center=  3.0D-33, -4.4D-16,  2.1D-16, r^2= 1.9D+00
   Bfn.  Coefficient  Atom+Function         Bfn.  Coefficient  Atom+Function  
  ----- ------------  ---------------      ----- ------------  ---------------
     8      1.170439  1 N  py                23     -1.170439  2 N  py         
     5     -0.734133  1 N  py                20      0.734133  2 N  py         
 
 Vector   17  Occ=0.000000D+00  E= 1.134646D+00  Symmetry=a1
              MO Center=  2.5D-17,  9.4D-18,  6.1D-14, r^2= 1.3D+00
   Bfn.  Coefficient  Atom+Function         Bfn.  Coefficient  Atom+Function  
  ----- ------------  ---------------      ----- ------------  ---------------
     3      2.202794  1 N  s                 18     -2.202794  2 N  s          
     6     -0.660920  1 N  pz                21     -0.660920  2 N  pz         
     9     -0.461433  1 N  pz                24     -0.461433  2 N  pz         
    15     -0.380757  1 N  dzz               30      0.380757  2 N  dzz        
     2     -0.375824  1 N  s                 17      0.375824  2 N  s          
 

 center of mass
 --------------
 x =   0.00000000 y =   0.00000000 z =   0.00000000

 moments of inertia (a.u.)
 ------------------
          29.033037760134           0.000000000000           0.000000000000
           0.000000000000          29.033037760134           0.000000000000
           0.000000000000           0.000000000000           0.000000000000
 
  Mulliken analysis of the total density
  --------------------------------------

    Atom       Charge   Shell Charges
 -----------   ------   -------------------------------------------------------
    1 N    7     7.00   2.00  0.85  0.90  2.15  1.04  0.06
    2 N    7     7.00   2.00  0.85  0.90  2.15  1.04  0.06
 
       Multipole analysis of the density wrt the origin
       ------------------------------------------------
 
     L   x y z        total         open         nuclear
     -   - - -        -----         ----         -------
     0   0 0 0     -0.000000      0.000000     14.000000
 
     1   1 0 0     -0.000000      0.000000      0.000000
     1   0 1 0      0.000000      0.000000      0.000000
     1   0 0 1      0.000000      0.000000      0.000000
 
     2   2 0 0     -7.496881      0.000000      0.000000
     2   1 1 0      0.000000      0.000000      0.000000
     2   1 0 1      0.000000      0.000000      0.000000
     2   0 2 0     -7.496881      0.000000      0.000000
     2   0 1 1     -0.000000      0.000000      0.000000
     2   0 0 2     -8.649493      0.000000     14.513336
 

 Parallel integral file used      19 records with       0 large values


 Task  times  cpu:       13.0s     wall:       14.5s
 
 
                                NWChem Input Module
                                -------------------
 
 
 
  Limits (a.u.) specified for the density plot:
  ---------------------------------------------
 
        From        To      # of spacings
X    -5.66918     5.66918        10
Y    -5.66918     5.66918        10
Z    -5.66918     5.66918        10
 
  Total number of grid points =                   1331
 
  1-st set of MOs      : n2.movecs
  Output is written to : n2-scf-chargedensity.cube
  Type of picture      : CHARGE DENSITY
  Format used          : Gaussian9x Cube
  Spin                 : TOTAL   
  The density is computed using all orbitals
  The density is computed on the specified grid
  Grid minima (bohr)  -5.669180 -5.669180 -5.669180
  Grid maxima (bohr)   5.669180  5.669180  5.669180
  max element    41.4400068154850     
 
  Tol_rho              =                    0.10000E-39
  Sum of elements      =                       88.48768
  Integration volume   =                        1.45764
  Integrated Charge    =                      128.98328

 Task  times  cpu:        0.8s     wall:        0.9s
 
 
                                NWChem Input Module
                                -------------------
 
 
                                 NWChem SCF Module
                                 -----------------
 
 

  ao basis        = "ao basis"
  functions       =    30
  atoms           =     2
  closed shells   =     7
  open shells     =     0
  charge          =   0.00
  wavefunction    = RHF 
  input vectors   = ./n2.movecs
  output vectors  = ./n2.movecs
  use symmetry    = T
  symmetry adapt  = T


 Summary of "ao basis" -> "ao basis" (cartesian)
 ------------------------------------------------------------------------------
       Tag                 Description            Shells   Functions and Types
 ---------------- ------------------------------  ------  ---------------------
 n                          cc-pvdz                  6       15   3s2p1d


      Symmetry analysis of basis
      --------------------------
 
        a1         16
        a2          2
        b1          6
        b2          6
 

  The SCF is already converged 

         Total SCF energy =   -108.956123116484

                   NWChem Extensible Many-Electron Theory Module
                   ---------------------------------------------
 
              ======================================================
                   This portion of the program was automatically
                  generated by a Tensor Contraction Engine (TCE).
                  The development of this portion of the program
                 and TCE was supported by US Department of Energy,
                Office of Science, Office of Basic Energy Science.
                      TCE is a product of Battelle and PNNL.
              Please cite: S.Hirata, J.Phys.Chem.A 107, 9887 (2003).
              ======================================================
 
            General Information
            -------------------
      Number of processors :    19
         Wavefunction type : Restricted Hartree-Fock
          No. of electrons :    14
           Alpha electrons :     7
            Beta electrons :     7
           No. of orbitals :    60
            Alpha orbitals :    30
             Beta orbitals :    30
        Alpha frozen cores :     0
         Beta frozen cores :     0
     Alpha frozen virtuals :     0
      Beta frozen virtuals :     0
         Spin multiplicity : singlet 
    Number of AO functions :    30
       Number of AO shells :    12
        Use of symmetry is : on 
      Symmetry adaption is : on 
         Schwarz screening : 0.10D-09
 
          Correlation Information
          -----------------------
          Calculation type : Coupled-cluster singles & doubles                           
   Perturbative correction : none                                                        
            Max iterations :      100
        Residual threshold : 0.10D-06
     T(0) DIIS level shift : 0.00D+00
     L(0) DIIS level shift : 0.00D+00
     T(1) DIIS level shift : 0.00D+00
     L(1) DIIS level shift : 0.00D+00
     T(R) DIIS level shift : 0.00D+00
     T(I) DIIS level shift : 0.00D+00
   CC-T/L Amplitude update :  5-th order DIIS
                I/O scheme : Global Array Library
        L-threshold :  0.10D-06
        EOM-threshold :  0.10D-06
 no EOMCCSD initial starts read in
 TCE RESTART OPTIONS
 READ_INT:   F
 WRITE_INT:  F
 READ_TA:    F
 WRITE_TA:   F
 READ_XA:    F
 WRITE_XA:   F
 READ_IN3:   F
 WRITE_IN3:  F
 SLICE:      F
 D4D5:       F
 quantumc:   F
 qrotation:  F
 pwtce:      F
 qducc:      F
 nacto:                          0
 nrotv:                          0
 nrot:                           0
 
            Memory Information
            ------------------
          Available GA space size is     996146300 doubles
          Available MA space size is      52427052 doubles
 
 Maximum block size        32 doubles

 tile_dim =     11

 Block   Spin    Irrep     Size     Offset   Alpha
 -------------------------------------------------
   1    alpha     a1     5 doubles       0       1
   2    alpha     b1     1 doubles       5       2
   3    alpha     b2     1 doubles       6       3
   4    beta      a1     5 doubles       7       1
   5    beta      b1     1 doubles      12       2
   6    beta      b2     1 doubles      13       3
   7    alpha     a1    11 doubles      14       7
   8    alpha     a2     2 doubles      25       8
   9    alpha     b1     5 doubles      27       9
  10    alpha     b2     5 doubles      32      10
  11    beta      a1    11 doubles      37       7
  12    beta      a2     2 doubles      48       8
  13    beta      b1     5 doubles      50       9
  14    beta      b2     5 doubles      55      10

 Global array virtual files algorithm will be used

 Parallel file system coherency ......... OK

 SCF dipole moments / hartree & Debye
 ------------------------------------
   X         0.0000000      0.0000000
   Y        -0.0000000     -0.0000000
   Z        -0.0000000     -0.0000000
 Total       0.0000000      0.0000000
 ------------------------------------
 
 Cpu & wall time / sec            1.5            1.6
 
 X   axis ( b1  symmetry)
 dipole file size   =              216
 dipole file name   = ./n2.d1x
 
 Y   axis ( b2  symmetry)
 dipole file size   =              216
 dipole file name   = ./n2.d1y
 
 Z   axis ( a1  symmetry)
 dipole file size   =              332
 dipole file name   = ./n2.d1z

 #quartets = 3.081D+03 #integrals = 3.370D+04 #direct =  0.0% #cached =100.0%


 Integral file          = ./n2.aoints.00
 Record size in doubles =  65536        No. of integs per rec  =  43688
 Max. records in memory =      3        Max. records in file   = 224742
 No. of bits per label  =      8        No. of bits per value  =     64


File balance: exchanges=     0  moved=     0  time=   0.0

 
 Fock matrix recomputed
 1-e file size   =              332
 1-e file name   = ./n2.f1
 Cpu & wall time / sec            1.3            1.4
 
 tce_ao2e: fast2e=1
 half-transformed integrals in memory
 
 2-e (intermediate) file size =         1801800
 2-e (intermediate) file name = ./n2.v2i
 Cpu & wall time / sec            0.1            0.1
 
 tce_mo2e: fast2e=1
 2-e integrals stored in memory
 
 2-e file size   =           321273
 2-e file name   = ./n2.v2
 Cpu & wall time / sec            0.6            0.6
 T1-number-of-tasks                     3
 
 t1 file size   =               65
 t1 file name   = ./n2.t1
 t1 file handle =       -998
 T2-number-of-boxes                    54
 
 t2 file size   =            12935
 t2 file name   = ./n2.t2
 t2 file handle =       -992
CCSD iterations
 ---------------------------------------------------------
 Iter          Residuum       Correlation     Cpu    Wall 
 ---------------------------------------------------------
NEW TASK SCHEDULING
CCSD_T1_NTS --- OK
CCSD_T2_NTS --- OK
    1   0.1545212495599  -0.3113644265684     0.0     0.1
    2   0.0417703097728  -0.3051401663789     0.0     0.0
    3   0.0152780478578  -0.3134841414484     0.0     0.0
    4   0.0074069046490  -0.3137841754242     0.0     0.0
    5   0.0036859159395  -0.3145246653068     0.2     0.2
 MICROCYCLE DIIS UPDATE:                     5                     5
    6   0.0006596074111  -0.3148737076409     1.4     1.9
    7   0.0002250347077  -0.3149127077044     0.0     0.0
    8   0.0001063928279  -0.3149137026812     0.0     0.0
    9   0.0000542474388  -0.3149147571151     2.1     3.1
   10   0.0000286268087  -0.3149158740457     1.0     1.4
 MICROCYCLE DIIS UPDATE:                    10                     5
   11   0.0000034673479  -0.3149177146062     1.6     1.7
   12   0.0000012091633  -0.3149174747333     0.0     0.0
   13   0.0000005099904  -0.3149176402877     0.0     0.0
   14   0.0000002538491  -0.3149176478320     0.5     0.5
   15   0.0000001259476  -0.3149176662905     0.7     0.7
 MICROCYCLE DIIS UPDATE:                    15                     5
   16   0.0000000205656  -0.3149176771215     0.9     0.9
 -----------------------------------------------------------------
 Iterations converged
 CCSD correlation energy / hartree =        -0.314917677121533
 CCSD total energy / hartree       =      -109.271040793605110

 Singles contributions

 Doubles contributions

 CCSD Lambda iterations
 ---------------------------------------------
 Iter          Residuum            Cpu    Wall
 ---------------------------------------------
    1          1.1997655533681     1.1     1.3
    2          0.0251003280141     3.1     3.3
    3          0.0024283244365     1.8     2.5
    4          0.0002495018465     4.6     5.7
    5          0.0000606463313     1.5     1.7
 MICROCYCLE DIIS UPDATE:                     5                     5
    6          0.0000066931174     1.8     2.0
    7          0.0000009698387     3.8     5.4
    8          0.0000002433872     5.1     5.9
    9          0.0000000694034     1.8     1.9
 ---------------------------------------------
 Iterations converged
1-PDM CCSD : h-h block

 1PDM h-h block largest contributions


1-PDM CCSD : p-p block

 1PDM p-p block largest contributions


1-PDM CCSD : h-p block

 1PDM h-p block largest contributions


1-PDM CCSD : p-h block

 1PDM p-h block largest contributions


1-PDM CCSD : all done


Lambda-CCSD leading excitations:

 Singles contributions

 Doubles contributions

 CCSD dipole moments / hartree & Debye
 ------------------------------------
   X         0.0000000      0.0000000
   Y        -0.0000000     -0.0000000
   Z         0.0000000      0.0000000
 Total       0.0000000      0.0000000
 ------------------------------------

 Parallel integral file used      19 records with       0 large values


 Task  times  cpu:       43.9s     wall:       52.4s
 
 
                                NWChem Input Module
                                -------------------
 
 
  File vec is 
 ./n2.movecs                                                                    
                                                                                
                                                                                
                    
 
  Limits (a.u.) specified for the density plot:
  ---------------------------------------------
 
        From        To      # of spacings
X    -5.66918     5.66918        10
Y    -5.66918     5.66918        10
Z    -5.66918     5.66918        10
 
  Total number of grid points =                   1331
 
  1-st set of MOs      : ./n2.movecs
  1-st One Particle Reduced Density Matrix :n2.densmat
  Output is written to : n2-ccsddensity.cube
  Type of picture      : CHARGE DENSITY
  Format used          : Gaussian9x Cube
  Spin                 : TOTAL   
  The density is computed using  density matrices
  The density is computed on the specified grid
  Grid minima (bohr)  -5.669180 -5.669180 -5.669180
  Grid maxima (bohr)   5.669180  5.669180  5.669180
  max element    41.4471355959827     
 
  Tol_rho              =                    0.10000E-39
  Sum of elements      =                       88.46147
  Integration volume   =                        1.45764
  Integrated Charge    =                      128.94507

 Task  times  cpu:        0.0s     wall:        0.0s
 
 
                                NWChem Input Module
                                -------------------
 
 
 Summary of allocated global arrays
-----------------------------------
  No active global arrays


MA_summarize_allocated_blocks: starting scan ...
MA_summarize_allocated_blocks: scan completed: 0 heap blocks, 0 stack blocks
MA usage statistics:

	allocation statistics:
					      heap	     stack
					      ----	     -----
	current number of blocks	         0	         0
	maximum number of blocks	        18	        42
	current total bytes		         0	         0
	maximum total bytes		   1585392	  89017752
	maximum total K-bytes		      1586	     89018
	maximum total M-bytes		         2	        90
 
 
                                     CITATION
                                     --------
                Please cite the following reference when publishing
                           results obtained with NWChem:
 
          E. Apra, E. J. Bylaska, W. A. de Jong, N. Govind, K. Kowalski,
       T. P. Straatsma, M. Valiev, H. J. J. van Dam, Y. Alexeev, J. Anchell,
       V. Anisimov, F. W. Aquino, R. Atta-Fynn, J. Autschbach, N. P. Bauman,
     J. C. Becca, D. E. Bernholdt, K. Bhaskaran-Nair, S. Bogatko, P. Borowski,
         J. Boschen, J. Brabec, A. Bruner, E. Cauet, Y. Chen, G. N. Chuev,
      C. J. Cramer, J. Daily, M. J. O. Deegan, T. H. Dunning Jr., M. Dupuis,
   K. G. Dyall, G. I. Fann, S. A. Fischer, A. Fonari, H. Fruchtl, L. Gagliardi,
      J. Garza, N. Gawande, S. Ghosh, K. Glaesemann, A. W. Gotz, J. Hammond,
       V. Helms, E. D. Hermes, K. Hirao, S. Hirata, M. Jacquelin, L. Jensen,
   B. G. Johnson, H. Jonsson, R. A. Kendall, M. Klemm, R. Kobayashi, V. Konkov,
      S. Krishnamoorthy, M. Krishnan, Z. Lin, R. D. Lins, R. J. Littlefield,
      A. J. Logsdail, K. Lopata, W. Ma, A. V. Marenich, J. Martin del Campo,
   D. Mejia-Rodriguez, J. E. Moore, J. M. Mullin, T. Nakajima, D. R. Nascimento,
    J. A. Nichols, P. J. Nichols, J. Nieplocha, A. Otero-de-la-Roza, B. Palmer,
    A. Panyala, T. Pirojsirikul, B. Peng, R. Peverati, J. Pittner, L. Pollack,
   R. M. Richard, P. Sadayappan, G. C. Schatz, W. A. Shelton, D. W. Silverstein,
   D. M. A. Smith, T. A. Soares, D. Song, M. Swart, H. L. Taylor, G. S. Thomas,
            V. Tipparaju, D. G. Truhlar, K. Tsemekhman, T. Van Voorhis,
      A. Vazquez-Mayagoitia, P. Verma, O. Villa, A. Vishnu, K. D. Vogiatzis,
        D. Wang, J. H. Weare, M. J. Williamson, T. L. Windus, K. Wolinski,
        A. T. Wong, Q. Wu, C. Yang, Q. Yu, M. Zacharias, Z. Zhang, Y. Zhao,
                                and R. J. Harrison
                        "NWChem: Past, present, and future
                         J. Chem. Phys. 152, 184102 (2020)
                               doi:10.1063/5.0004997
 
                                      AUTHORS
                                      -------
  E. Apra, E. J. Bylaska, N. Govind, K. Kowalski, M. Valiev, D. Mejia-Rodriguez,
       A. Kunitsa, N. P. Bauman, A. Panyala, W. A. de Jong, T. P. Straatsma,
   H. J. J. van Dam, D. Wang, T. L. Windus, J. Hammond, J. Autschbach, A. Woods,
    K. Bhaskaran-Nair, J. Brabec, K. Lopata, S. A. Fischer, S. Krishnamoorthy,
     M. Jacquelin, W. Ma, M. Klemm, O. Villa, Y. Chen, V. Anisimov, F. Aquino,
     S. Hirata, M. T. Hackler, E. Hermes, L. Jensen, J. E. Moore, J. C. Becca,
      V. Konjkov, T. Risthaus, M. Malagoli, A. Marenich, A. Otero-de-la-Roza,
        J. Mullin, P. Nichols, R. Peverati, J. Pittner, Y. Zhao, P.-D. Fan,
        A. Fonari, M. J. Williamson, R. J. Harrison, J. R. Rehr, M. Dupuis,
     D. Silverstein, D. M. A. Smith, J. Nieplocha, V. Tipparaju, M. Krishnan,
     B. E. Van Kuiken, A. Vazquez-Mayagoitia, M. Swart, Q. Wu, T. Van Voorhis,
     A. A. Auer, M. Nooijen, L. D. Crosby, E. Brown, G. Cisneros, G. I. Fann,
   H. Fruchtl, J. Garza, K. Hirao, R. A. Kendall, J. A. Nichols, K. Tsemekhman,
    K. Wolinski, J. Anchell, D. E. Bernholdt, P. Borowski, T. Clark, D. Clerc,
   H. Dachsel, M. J. O. Deegan, K. Dyall, D. Elwood, E. Glendening, M. Gutowski,
   A. C. Hess, J. Jaffe, B. G. Johnson, J. Ju, R. Kobayashi, R. Kutteh, Z. Lin,
   R. Littlefield, X. Long, B. Meng, T. Nakajima, S. Niu, L. Pollack, M. Rosing,
   K. Glaesemann, G. Sandrone, M. Stave, H. Taylor, G. Thomas, J. H. van Lenthe,
                               A. T. Wong, Z. Zhang.

 Total times  cpu:       57.7s     wall:       67.9s
