 argument  1 = tddft-co.nw
 


============================== echo of input deck ==============================
echo
start tddftgrad_co_exden
geometry
 C     0.00000000     0.00000000    -0.64628342
 O     0.00000000     0.00000000     0.48264375
 symmetry c1
end
basis spherical
 * library "3-21G"
end
dft
 xc pbe0
 direct
end
tddft
 nroots 3
 notriplet
 target 1
 civecs
 grad
  root 1
 end
end
task tddft gradient
dplot
 densmat tddftgrad_co_exden.dmat
 LimitXYZ
-4.0 4.0 50
-4.0 4.0 50
-4.0 4.0 50
 gaussian
 output co_exden.cube
end
task dplot
================================================================================


                                         
                                         
 
 
             Northwest Computational Chemistry Package (NWChem) 7.2.2
             --------------------------------------------------------
 
 
                    Environmental Molecular Sciences Laboratory
                       Pacific Northwest National Laboratory
                                Richland, WA 99352
 
                              Copyright (c) 1994-2022
                       Pacific Northwest National Laboratory
                            Battelle Memorial Institute
 
             NWChem is an open-source computational chemistry package
                        distributed under the terms of the
                      Educational Community License (ECL) 2.0
             A copy of the license is included with this distribution
                              in the LICENSE.TXT file
 
                                  ACKNOWLEDGMENT
                                  --------------

            This software and its documentation were developed at the
            EMSL at Pacific Northwest National Laboratory, a multiprogram
            national laboratory, operated for the U.S. Department of Energy
            by Battelle under Contract Number DE-AC05-76RL01830. Support
            for this work was provided by the Department of Energy Office
            of Biological and Environmental Research, Office of Basic
            Energy Sciences, and the Office of Advanced Scientific Computing.


           Job information
           ---------------

    hostname        = charliebox
    program         = /apps/nwchem/bin/nwchem
    date            = Fri Oct 24 13:30:10 2025

    compiled        = Tue_Apr_23_01:04:59_2024
    source          = /apps/nwchem-7.2.2-release
    nwchem branch   = 7.2.2
    nwchem revision = N/A
    ga revision     = 5.8.0
    use scalapack   = T
    input           = tddft-co.nw
    prefix          = tddftgrad_co_exden.
    data base       = ./tddftgrad_co_exden.db
    status          = startup
    nproc           =       19
    time left       =     -1s



           Memory information
           ------------------

    heap     =   26214394 doubles =    200.0 Mbytes
    stack    =   26214399 doubles =    200.0 Mbytes
    global   =   52428800 doubles =    400.0 Mbytes (distinct from heap & stack)
    total    =  104857593 doubles =    800.0 Mbytes
    verify   = yes
    hardfail = no 


           Directory information
           ---------------------
 
  0 permanent = .
  0 scratch   = .
 
 
 
 
                                NWChem Input Module
                                -------------------
 
 

 Scaling coordinates for geometry "geometry" by  1.889725989
 (inverse scale =  0.529177249)

 Turning off AUTOSYM since
 SYMMETRY directive was detected!
 

          ------
          auto-z
          ------
  no constraints, skipping   0.000000000000000E+000
  no constraints, skipping   0.000000000000000E+000
 
 
                             Geometry "geometry" -> ""
                             -------------------------
 
 Output coordinates in angstroms (scale by  1.889725989 to convert to a.u.)
 
  No.       Tag          Charge          X              Y              Z
 ---- ---------------- ---------- -------------- -------------- --------------
    1 C                    6.0000     0.00000000     0.00000000    -0.64510124
    2 O                    8.0000     0.00000000     0.00000000     0.48382593
 
      Atomic Mass 
      ----------- 
 
      C                 12.000000
      O                 15.994910
 

 Effective nuclear repulsion energy (a.u.)      22.4996869833

            Nuclear Dipole moment (a.u.) 
            ----------------------------
        X                 Y               Z
 ---------------- ---------------- ----------------
     0.0000000000     0.0000000000     0.0000000000
 


                                Z-matrix (autoz)
                                -------- 

 Units are Angstrom for bonds and degrees for angles
 
      Type          Name      I     J     K     L     M      Value
      ----------- --------  ----- ----- ----- ----- ----- ----------
    1 Stretch                  1     2                       1.12893
 
 
            XYZ format geometry
            -------------------
     2
 geometry
 C                     0.00000000     0.00000000    -0.64510124
 O                     0.00000000     0.00000000     0.48382593
 
 ==============================================================================
                                internuclear distances
 ------------------------------------------------------------------------------
       center one      |      center two      | atomic units |  angstroms
 ------------------------------------------------------------------------------
    2 O                |   1 C                |     2.13336  |     1.12893
 ------------------------------------------------------------------------------
                         number of included internuclear distances:          1
 ==============================================================================



  library name resolved from: environment
  library file name is: </apps/nwchem/data/libraries/>
  


 Summary of "ao basis" -> "" (spherical)
 ------------------------------------------------------------------------------
       Tag                 Description            Shells   Functions and Types
 ---------------- ------------------------------  ------  ---------------------
 *                           3-21G                    on all atoms 


 tddft_input: filename not found; default name will be used
 
                                 NWChem DFT Module
                                 -----------------
 
 
                      Basis "ao basis" -> "ao basis" (spherical)
                      -----
  C (Carbon)
  ----------
            Exponent  Coefficients 
       -------------- ---------------------------------------------------------
  1 S  1.72256000E+02  0.061767
  1 S  2.59109000E+01  0.358794
  1 S  5.53335000E+00  0.700713
 
  2 S  3.66498000E+00 -0.395897
  2 S  7.70545000E-01  1.215840
 
  3 P  3.66498000E+00  0.236460
  3 P  7.70545000E-01  0.860619
 
  4 S  1.95857000E-01  1.000000
 
  5 P  1.95857000E-01  1.000000
 
  O (Oxygen)
  ----------
            Exponent  Coefficients 
       -------------- ---------------------------------------------------------
  1 S  3.22037000E+02  0.059239
  1 S  4.84308000E+01  0.351500
  1 S  1.04206000E+01  0.707658
 
  2 S  7.40294000E+00 -0.404453
  2 S  1.57620000E+00  1.221560
 
  3 P  7.40294000E+00  0.244586
  3 P  1.57620000E+00  0.853955
 
  4 S  3.73684000E-01  1.000000
 
  5 P  3.73684000E-01  1.000000
 


 Summary of "ao basis" -> "ao basis" (spherical)
 ------------------------------------------------------------------------------
       Tag                 Description            Shells   Functions and Types
 ---------------- ------------------------------  ------  ---------------------
 C                           3-21G                   5        9   3s2p
 O                           3-21G                   5        9   3s2p




 Summary of "ao basis" -> "ao basis" (spherical)
 ------------------------------------------------------------------------------
       Tag                 Description            Shells   Functions and Types
 ---------------- ------------------------------  ------  ---------------------
 C                           3-21G                   5        9   3s2p
 O                           3-21G                   5        9   3s2p


  Caching 1-el integrals 
 
            General Information
            -------------------
          SCF calculation type: DFT
          Wavefunction type:  closed shell.
          No. of atoms     :     2
          No. of electrons :    14
           Alpha electrons :     7
            Beta electrons :     7
          Charge           :     0
          Spin multiplicity:     1
          Use of symmetry is: off; symmetry adaption is: off
          Maximum number of iterations:  50
          This is a Direct SCF calculation.
          AO basis - number of functions:    18
                     number of shells:    10
          Convergence on energy requested:  1.00D-06
          Convergence on density requested:  1.00D-05
          Convergence on gradient requested:  5.00D-04
 
              XC Information
              --------------
                         PBE0 Method XC Functional
                     Hartree-Fock (Exact) Exchange  0.250          
          PerdewBurkeErnzerhof Exchange Functional  0.750          
            Perdew 1991 LDA Correlation Functional  1.000 local    
           PerdewBurkeErnz. Correlation Functional  1.000 non-local
 
             Grid Information
             ----------------
          Grid used for XC integration:  medium    
          Radial quadrature: Mura-Knowles        
          Angular quadrature: Lebedev. 
          Tag              B.-S. Rad. Rad. Pts. Rad. Cut. Ang. Pts.
          ---              ---------- --------- --------- ---------
          C                   0.70       49           5.0       434
          O                   0.60       49           5.0       434
          Grid pruning is: on 
          Number of quadrature shells:    98
          Spatial weights used:  Erf1
 
          Convergence Information
          -----------------------
          Convergence aids based upon iterative change in 
          total energy or number of iterations. 
          Levelshifting, if invoked, occurs when the 
          HOMO/LUMO gap drops below (HL_TOL):  1.00D-02
          DIIS, if invoked, will attempt to extrapolate 
          using up to (NFOCK): 10 stored Fock matrices.

                    Damping( 0%)  Levelshifting(0.5)       DIIS
                  --------------- ------------------- ---------------
          dE  on:    start            ASAP                start   
          dE off:    2 iters         50 iters            50 iters 

 
      Screening Tolerance Information
      -------------------------------
          Density screening/tol_rho:  1.00D-10
          AO Gaussian exp screening on grid/accAOfunc:  14
          CD Gaussian exp screening on grid/accCDfunc:  20
          XC Gaussian exp screening on grid/accXCfunc:  20
          Schwarz screening/accCoul:  1.00D-08

 
      Superposition of Atomic Density Guess
      -------------------------------------
 
 Sum of atomic energies:        -111.83245401
 
      Non-variational initial energy
      ------------------------------

 Total energy =    -112.280932
 1-e energy   =    -197.166614
 2-e energy   =      62.385995
 HOMO         =      -0.371277
 LUMO         =       0.065454
 
  WARNING: movecs_in_org=atomic not equal to movecs_in=
 ./tddftgrad_co_exden.movecs
   Time after variat. SCF:      2.5
   Time prior to 1st pass:      2.5

 Grid_pts file          = ./tddftgrad_co_exden.gridpts.00
 Record size in doubles =  12289        No. of grid_pts per rec  =   3070
 Max. records in memory =      2        Max. recs in file   =   1198544


           Memory utilization after 1st SCF pass: 
           Heap Space remaining (MW):       26.19            26188610
          Stack Space remaining (MW):       26.21            26214180

   convergence    iter        energy       DeltaE   RMS-Dens  Diis-err    time
 ---------------- ----- ----------------- --------- --------- ---------  ------
 d= 0,ls=0.0,diis     1   -112.4889157375 -1.35D+02  4.46D-02  4.50D-01     2.6
 d= 0,ls=0.0,diis     2   -112.3426152932  1.46D-01  3.09D-02  2.15D+00     4.0
 d= 0,ls=0.0,diis     3   -112.5405966867 -1.98D-01  2.96D-03  9.64D-03     4.2
 d= 0,ls=0.0,diis     4   -112.5413273707 -7.31D-04  6.45D-04  3.32D-04     5.0
 d= 0,ls=0.0,diis     5   -112.5413607423 -3.34D-05  5.70D-05  1.44D-06     5.6
 d= 0,ls=0.0,diis     6   -112.5413608908 -1.48D-07  2.28D-06  9.81D-10     7.0


         Total DFT energy =     -112.541360890830
      One electron energy =     -197.272593176613
           Coulomb energy =       75.946332447035
    Exchange-Corr. energy =      -13.714787144590
 Nuclear repulsion energy =       22.499686983338

 Numeric. integr. density =       14.000000408060

     Total iterative time =      4.5s


 
                       DFT Final Molecular Orbital Analysis
                       ------------------------------------
 
 Vector    1  Occ=2.000000D+00  E=-1.923512D+01
              MO Center=  5.1D-18, -1.5D-17,  4.8D-01, r^2= 1.5D-02
   Bfn.  Coefficient  Atom+Function         Bfn.  Coefficient  Atom+Function  
  ----- ------------  ---------------      ----- ------------  ---------------
    10      0.982707  2 O  s                 11      0.105385  2 O  s          
    15     -0.057026  2 O  s          
 
 Vector    2  Occ=2.000000D+00  E=-1.029608D+01
              MO Center=  1.6D-17,  1.1D-17, -6.4D-01, r^2= 2.8D-02
   Bfn.  Coefficient  Atom+Function         Bfn.  Coefficient  Atom+Function  
  ----- ------------  ---------------      ----- ------------  ---------------
     1      0.984699  1 C  s                  2      0.097161  1 C  s          
     6     -0.025570  1 C  s          
 
 Vector    3  Occ=2.000000D+00  E=-1.226791D+00
              MO Center= -1.6D-15, -1.4D-15,  1.4D-01, r^2= 4.2D-01
   Bfn.  Coefficient  Atom+Function         Bfn.  Coefficient  Atom+Function  
  ----- ------------  ---------------      ----- ------------  ---------------
    15      0.648989  2 O  s                 10     -0.214774  2 O  s          
    11      0.209573  2 O  s                  5      0.193641  1 C  pz         
    14     -0.174183  2 O  pz                18     -0.152056  2 O  pz         
     2      0.141185  1 C  s                  1     -0.125153  1 C  s          
     6      0.048982  1 C  s                  9     -0.047050  1 C  pz         
 
 Vector    4  Occ=2.000000D+00  E=-5.751340D-01
              MO Center= -1.2D-15, -1.3D-15,  4.9D-01, r^2= 7.6D-01
   Bfn.  Coefficient  Atom+Function         Bfn.  Coefficient  Atom+Function  
  ----- ------------  ---------------      ----- ------------  ---------------
    15      0.552475  2 O  s                 14      0.394131  2 O  pz         
    18      0.338699  2 O  pz                 6     -0.292226  1 C  s          
     2     -0.187808  1 C  s                  1      0.136590  1 C  s          
    10     -0.136030  2 O  s                 11      0.125580  2 O  s          
     5     -0.122613  1 C  pz                 9      0.034740  1 C  pz         
 
 Vector    5  Occ=2.000000D+00  E=-4.908083D-01
              MO Center=  2.6D-15,  2.6D-15,  1.8D-01, r^2= 8.1D-01
   Bfn.  Coefficient  Atom+Function         Bfn.  Coefficient  Atom+Function  
  ----- ------------  ---------------      ----- ------------  ---------------
    16      0.323118  2 O  px                17      0.323155  2 O  py         
    12      0.320868  2 O  px                13      0.320905  2 O  py         
     3      0.198138  1 C  px                 4      0.198161  1 C  py         
     7      0.146431  1 C  px                 8      0.146448  1 C  py         
 
 Vector    6  Occ=2.000000D+00  E=-4.908083D-01
              MO Center= -5.3D-16,  5.3D-16,  1.8D-01, r^2= 8.1D-01
   Bfn.  Coefficient  Atom+Function         Bfn.  Coefficient  Atom+Function  
  ----- ------------  ---------------      ----- ------------  ---------------
    16      0.323155  2 O  px                17     -0.323118  2 O  py         
    12      0.320905  2 O  px                13     -0.320868  2 O  py         
     3      0.198161  1 C  px                 4     -0.198138  1 C  py         
     7      0.146448  1 C  px                 8     -0.146431  1 C  py         
 
 Vector    7  Occ=2.000000D+00  E=-3.749667D-01
              MO Center=  9.0D-16,  2.9D-16, -8.5D-01, r^2= 9.8D-01
   Bfn.  Coefficient  Atom+Function         Bfn.  Coefficient  Atom+Function  
  ----- ------------  ---------------      ----- ------------  ---------------
     6      0.797139  1 C  s                  5     -0.375301  1 C  pz         
    18      0.252579  2 O  pz                14      0.239484  2 O  pz         
     1     -0.153967  1 C  s                  9     -0.147983  1 C  pz         
     2      0.128865  1 C  s                 15     -0.103967  2 O  s          
 
 Vector    8  Occ=0.000000D+00  E=-7.158415D-03
              MO Center= -6.6D-16, -6.6D-16, -4.0D-01, r^2= 1.3D+00
   Bfn.  Coefficient  Atom+Function         Bfn.  Coefficient  Atom+Function  
  ----- ------------  ---------------      ----- ------------  ---------------
     7      0.462417  1 C  px                 8      0.462455  1 C  py         
    16     -0.346170  2 O  px                17     -0.346198  2 O  py         
     3      0.334684  1 C  px                 4      0.334711  1 C  py         
    12     -0.243216  2 O  px                13     -0.243236  2 O  py         
 
 Vector    9  Occ=0.000000D+00  E=-7.158415D-03
              MO Center= -8.5D-17,  8.5D-17, -4.0D-01, r^2= 1.3D+00
   Bfn.  Coefficient  Atom+Function         Bfn.  Coefficient  Atom+Function  
  ----- ------------  ---------------      ----- ------------  ---------------
     7      0.462455  1 C  px                 8     -0.462417  1 C  py         
    16     -0.346198  2 O  px                17      0.346170  2 O  py         
     3      0.334711  1 C  px                 4     -0.334684  1 C  py         
    12     -0.243236  2 O  px                13      0.243216  2 O  py         
 
 Vector   10  Occ=0.000000D+00  E= 3.377237D-01
              MO Center=  4.9D-17,  4.9D-16, -5.8D-01, r^2= 2.1D+00
   Bfn.  Coefficient  Atom+Function         Bfn.  Coefficient  Atom+Function  
  ----- ------------  ---------------      ----- ------------  ---------------
    15     -1.687548  2 O  s                  9      1.635721  1 C  pz         
     6      1.416076  1 C  s                 18      0.661232  2 O  pz         
    14      0.161276  2 O  pz                 5      0.135405  1 C  pz         
    10      0.126476  2 O  s                  2     -0.073043  1 C  s          
    11     -0.066460  2 O  s                  1     -0.058390  1 C  s          
 
 Vector   11  Occ=0.000000D+00  E= 7.012385D-01
              MO Center=  1.7D-16, -1.7D-16, -7.0D-01, r^2= 1.5D+00
   Bfn.  Coefficient  Atom+Function         Bfn.  Coefficient  Atom+Function  
  ----- ------------  ---------------      ----- ------------  ---------------
     7     -0.754786  1 C  px                 8      0.753054  1 C  py         
     3      0.737832  1 C  px                 4     -0.736138  1 C  py         
    16      0.081533  2 O  px                17     -0.081346  2 O  py         
    12      0.026429  2 O  px                13     -0.026369  2 O  py         
 
 Vector   12  Occ=0.000000D+00  E= 7.012385D-01
              MO Center=  2.1D-15,  2.1D-15, -7.0D-01, r^2= 1.5D+00
   Bfn.  Coefficient  Atom+Function         Bfn.  Coefficient  Atom+Function  
  ----- ------------  ---------------      ----- ------------  ---------------
     7     -0.753054  1 C  px                 8     -0.754786  1 C  py         
     3      0.736138  1 C  px                 4      0.737832  1 C  py         
    16      0.081346  2 O  px                17      0.081533  2 O  py         
    12      0.026369  2 O  px                13      0.026429  2 O  py         
 
 Vector   13  Occ=0.000000D+00  E= 8.592638D-01
              MO Center= -6.9D-16, -8.4D-16, -7.9D-01, r^2= 1.2D+00
   Bfn.  Coefficient  Atom+Function         Bfn.  Coefficient  Atom+Function  
  ----- ------------  ---------------      ----- ------------  ---------------
     5      1.183158  1 C  pz                 6      0.757305  1 C  s          
     9     -0.592222  1 C  pz                18      0.576308  2 O  pz         
    15     -0.306896  2 O  s                  2     -0.241883  1 C  s          
    14      0.209744  2 O  pz                11     -0.073263  2 O  s          
    10      0.062110  2 O  s          
 
 Vector   14  Occ=0.000000D+00  E= 1.104771D+00
              MO Center= -2.3D-15, -9.7D-16, -4.0D-01, r^2= 1.0D+00
   Bfn.  Coefficient  Atom+Function         Bfn.  Coefficient  Atom+Function  
  ----- ------------  ---------------      ----- ------------  ---------------
     2      1.481976  1 C  s                  6     -1.202830  1 C  s          
    14      0.405534  2 O  pz                 5      0.301832  1 C  pz         
     9     -0.171682  1 C  pz                15      0.132870  2 O  s          
     1     -0.112115  1 C  s                 18      0.078748  2 O  pz         
    10      0.026609  2 O  s          
 
 Vector   15  Occ=0.000000D+00  E= 1.458100D+00
              MO Center= -1.1D-14, -1.1D-14,  4.7D-01, r^2= 9.0D-01
   Bfn.  Coefficient  Atom+Function         Bfn.  Coefficient  Atom+Function  
  ----- ------------  ---------------      ----- ------------  ---------------
    16      0.807259  2 O  px                17      0.809096  2 O  py         
    12     -0.719946  2 O  px                13     -0.721584  2 O  py         
     7     -0.268254  1 C  px                 8     -0.268865  1 C  py         
 
 Vector   16  Occ=0.000000D+00  E= 1.458100D+00
              MO Center= -1.7D-15,  1.7D-15,  4.7D-01, r^2= 9.0D-01
   Bfn.  Coefficient  Atom+Function         Bfn.  Coefficient  Atom+Function  
  ----- ------------  ---------------      ----- ------------  ---------------
    16      0.809096  2 O  px                17     -0.807259  2 O  py         
    12     -0.721584  2 O  px                13      0.719946  2 O  py         
     7     -0.268865  1 C  px                 8      0.268254  1 C  py         
 
 Vector   17  Occ=0.000000D+00  E= 1.467816D+00
              MO Center=  1.2D-14,  8.7D-15,  8.3D-01, r^2= 7.3D-01
   Bfn.  Coefficient  Atom+Function         Bfn.  Coefficient  Atom+Function  
  ----- ------------  ---------------      ----- ------------  ---------------
    18      1.376900  2 O  pz                14     -0.945301  2 O  pz         
     2      0.581046  1 C  s                 15     -0.308060  2 O  s          
     6      0.210830  1 C  s                  9      0.194090  1 C  pz         
    11     -0.163065  2 O  s                  5      0.160712  1 C  pz         
    10      0.061903  2 O  s                  1      0.043629  1 C  s          
 
 Vector   18  Occ=0.000000D+00  E= 2.967489D+00
              MO Center=  9.5D-16,  7.3D-16,  2.2D-01, r^2= 9.2D-01
   Bfn.  Coefficient  Atom+Function         Bfn.  Coefficient  Atom+Function  
  ----- ------------  ---------------      ----- ------------  ---------------
    15      2.840190  2 O  s                 11     -1.749196  2 O  s          
     6     -1.290877  1 C  s                 18     -1.009632  2 O  pz         
     9     -0.932621  1 C  pz                 5     -0.294387  1 C  pz         
    14      0.205662  2 O  pz                 2     -0.188657  1 C  s          
    10      0.053787  2 O  s                  1     -0.025459  1 C  s          
 

 center of mass
 --------------
 x =   0.00000000 y =   0.00000000 z =  -0.00016624

 moments of inertia (a.u.)
 ------------------
          31.204231660766           0.000000000000           0.000000000000
           0.000000000000          31.204231660766           0.000000000000
           0.000000000000           0.000000000000           0.000000000000
 
     Multipole analysis of the density
     ---------------------------------
 
     L   x y z        total         alpha         beta         nuclear
     -   - - -        -----         -----         ----         -------
     0   0 0 0     -0.000000     -7.000000     -7.000000     14.000000
 
     1   1 0 0     -0.000000     -0.000000     -0.000000      0.000000
     1   0 1 0     -0.000000     -0.000000     -0.000000      0.000000
     1   0 0 1      0.029879      0.014939      0.014939      0.000000
 
     2   2 0 0     -7.329120     -3.664560     -3.664560      0.000000
     2   1 1 0      0.000000      0.000000      0.000000      0.000000
     2   1 0 1      0.000000      0.000000      0.000000      0.000000
     2   0 2 0     -7.329120     -3.664560     -3.664560      0.000000
     2   0 1 1      0.000000      0.000000      0.000000      0.000000
     2   0 0 2     -9.297453    -12.450848    -12.450848     15.604244
 
                                NWChem TDDFT Module
                                -------------------
 
 
            General Information
            -------------------
           No. of orbitals :      36
            Alpha orbitals :      18
             Beta orbitals :      18
        Alpha frozen cores :       0
         Beta frozen cores :       0
     Alpha frozen virtuals :       0
      Beta frozen virtuals :       0
         Spin multiplicity :       1
    Number of AO functions :      18
        Use of symmetry is : off
      Symmetry adaption is : off
         Schwarz screening :  0.10D-07
 
              XC Information
              --------------
                  PBE0 Method XC Functional
              Hartree-Fock (Exact) Exchange   0.25          
   PerdewBurkeErnzerhof Exchange Functional   0.75          
     Perdew 1991 LDA Correlation Functional   1.00 local    
    PerdewBurkeErnz. Correlation Functional   1.00 non-local
 
             TDDFT Information
             -----------------
          Calculation type : TDDFT             
         Wavefunction type : Restricted singlets
          No. of electrons :      14
           Alpha electrons :       7
            Beta electrons :       7
              No. of roots :       3
          Max subspacesize :    4600
            Max iterations :     100
               Target root :       1
           Target symmetry : none
      Symmetry restriction : off
                 Algorithm : Optimal
        Davidson threshold :  0.10D-03
 
            Memory Information
            ------------------
          Available GA space size is         996146876 doubles
          Available MA space size is          52427652 doubles
          Length of a trial vector is           77
          Algorithm : Incore multiple tensor contraction
          Estimated peak GA usage is           1426334 doubles
          Estimated peak MA usage is              6600 doubles
 
    3 smallest eigenvalue differences (eV) 
--------------------------------------------------------
  No. Spin  Occ  Vir  Irrep   E(Occ)    E(Vir)   E(Diff)
--------------------------------------------------------
    1    1    7    8 a        -0.375    -0.007    10.009
    2    1    7    9 a        -0.375    -0.007    10.009
    3    1    6    8 a        -0.491    -0.007    13.161
--------------------------------------------------------

  Entering Davidson iterations
  Restricted singlet excited states

  Iter   NTrls   NConv    DeltaV     DeltaE      Time   
  ----  ------  ------  ---------  ---------  --------- 
    1      3       0     0.13E+00   0.10+100        0.5
    2      9       0     0.35E-01   0.11E-01        0.1
    3     15       0     0.70E-02   0.47E-03        4.4
    4     21       0     0.90E-03   0.98E-05        0.9
    5     27       1     0.15E-03   0.16E-06        0.1
    6     31       3     0.24E-04   0.27E-08        0.1
  ----  ------  ------  ---------  ---------  --------- 
  Convergence criterion met
 
  Ground state a        -112.541360890830 a.u.
 
  ----------------------------------------------------------------------------
  Root   1 singlet a              0.312652235 a.u.                8.5077 eV 
  ----------------------------------------------------------------------------
     Transition Moments    X  0.52478   Y -0.28562   Z  0.00000
     Transition Moments   XX  0.00000  XY  0.00000  XZ -1.35662
     Transition Moments   YY  0.00000  YZ  0.73836  ZZ -0.00000
     Dipole Oscillator Strength                    0.0744060793
     Electric Quadrupole                           0.0000003882
     Magnetic Dipole                               0.0000064810
     Total Oscillator Strength                     0.0744129485
 
     Occ.    4  a   ---  Virt.    8  a   -0.05010 X
     Occ.    4  a   ---  Virt.    9  a   -0.16979 X
     Occ.    7  a   ---  Virt.    8  a   -0.27950 X
     Occ.    7  a   ---  Virt.    9  a   -0.94724 X
     Occ.    7  a   ---  Virt.    9  a    0.08773 Y
  ----------------------------------------------------------------------------
  Root   2 singlet a              0.312652235 a.u.                8.5077 eV 
  ----------------------------------------------------------------------------
     Transition Moments    X -0.28562   Y -0.52478   Z -0.00000
     Transition Moments   XX -0.00000  XY -0.00000  XZ  0.73836
     Transition Moments   YY -0.00000  YZ  1.35662  ZZ  0.00000
     Dipole Oscillator Strength                    0.0744060793
     Electric Quadrupole                           0.0000003882
     Magnetic Dipole                               0.0000064810
     Total Oscillator Strength                     0.0744129485
 
     Occ.    4  a   ---  Virt.    8  a    0.16979 X
     Occ.    4  a   ---  Virt.    9  a   -0.05010 X
     Occ.    7  a   ---  Virt.    8  a    0.94724 X
     Occ.    7  a   ---  Virt.    8  a   -0.08773 Y
     Occ.    7  a   ---  Virt.    9  a   -0.27950 X
  ----------------------------------------------------------------------------
  Root   3 singlet a              0.368023898 a.u.               10.0144 eV 
  ----------------------------------------------------------------------------
     Transition Moments    X -0.00000   Y  0.00000   Z -0.00000
     Transition Moments   XX -0.00000  XY -0.00000  XZ  0.00000
     Transition Moments   YY -0.00000  YZ -0.00000  ZZ -0.00003
     Dipole Oscillator Strength                    0.0000000000
     Electric Quadrupole                           0.0000000000
     Magnetic Dipole                               0.0000000000
     Total Oscillator Strength                     0.0000000000
 
     Occ.    5  a   ---  Virt.    9  a   -0.70729 X
     Occ.    6  a   ---  Virt.    8  a    0.70729 X
 
              Target root =      1
          Target symmetry = none
      Ground state energy =   -112.541360890830
        Excitation energy =      0.312652234983
     Excited state energy =   -112.228708655848
 
  stored tddft:energy   -112.228708655848     
 fn_civecs: 
 ./tddftgrad_co_exden.civecs_singlet                                            
                                                                                
                                                                                
                    

  CI vectors are stored in ./tddftgrad_co_exden.civecs_sing
 
 
                           NWChem TDDFT Gradient Module
                           ----------------------------
 
 
 ./tddftgrad_co_exden.civecs_singlet                                            
                                                                                
                                                                                
                   
 Calculated gradients of:
 Number of Singlet roots   1
 Singlet roots    1 
 
 Start at time  cpu:       13.8s  wall:       14.9s
 
 nroot:                      1
TDDFT Energy Check(  1) =       0.31265223498719


Iterative solution of linear equations
  No. of variables       77
  No. of equations        1
  Maximum subspace       40
        Iterations      250
       Convergence  1.0D-04
        Start time     18.4


   iter   nsub   residual    time
   ----  ------  --------  ---------
     1      1    2.43D-01      18.4
     2      2    3.50D-02      20.5
     3      3    4.83D-03      20.6
     4      4    4.55D-04      20.6
     5      5    5.58D-05      20.6
 
     Multipole analysis of the density
     ---------------------------------
 
     L   x y z        total
     -   - - -        -----
     0   0 0 0     -0.000000
 
     1   1 0 0     -0.000000
     1   0 1 0      0.000000
     1   0 0 1     -0.176668
 
     2   2 0 0     -8.082045
     2   1 1 0      0.520655
     2   1 0 1      0.000000
     2   0 2 0     -7.408795
     2   0 1 1     -0.000000
     2   0 0 2     -7.961402
 
 
     No. of electrons (tr(P*S)):     0.1400000E+02
 


                         Root   1

                         TDDFT ENERGY GRADIENTS

    atom               coordinates                        gradient
                 x          y          z           x          y          z
   1 C       0.000000   0.000000  -1.219065    0.000000   0.000000   0.268799
   2 O       0.000000   0.000000   0.914298   -0.000000  -0.000000  -0.268802
 
 TDDFT Gradient time  cpu:        8.6s  wall:       10.5s

 Task  times  cpu:       21.8s     wall:       25.1s
 
 
                                NWChem Input Module
                                -------------------
 
 
  File vec is 
 ./tddftgrad_co_exden.movecs                                                    
                                                                                
                                                                                
                    
 
  Limits (a.u.) specified for the density plot:
  ---------------------------------------------
 
        From        To      # of spacings
X    -7.55891     7.55891        50
Y    -7.55891     7.55891        50
Z    -7.55891     7.55891        50
 
  Total number of grid points =                 132651
 
  1-st set of MOs      : ./tddftgrad_co_exden.movecs
  1-st One Particle Reduced Density Matrix :tddftgrad_co_exden.dmat
  Output is written to : co_exden.cube
  Type of picture      : CHARGE DENSITY
  Format used          : Gaussian9x Cube
  Spin                 : TOTAL   
  The density is computed using  density matrices
  The density is computed on the specified grid
  Grid minima (bohr)  -7.558906 -7.558906 -7.558906
  Grid maxima (bohr)   7.558906  7.558906  7.558906
  max element    230.880661586347     
 
  Tol_rho              =                    0.10000E-39
  Sum of elements      =                      745.64153
  Integration volume   =                        0.02764
  Integrated Charge    =                       20.61042

 Task  times  cpu:        3.1s     wall:        3.5s
 
 
                                NWChem Input Module
                                -------------------
 
 
 Summary of allocated global arrays
-----------------------------------
  No active global arrays


MA_summarize_allocated_blocks: starting scan ...
MA_summarize_allocated_blocks: scan completed: 0 heap blocks, 0 stack blocks
MA usage statistics:

	allocation statistics:
					      heap	     stack
					      ----	     -----
	current number of blocks	         0	         0
	maximum number of blocks	        20	       105
	current total bytes		         0	         0
	maximum total bytes		    206176	  89018392
	maximum total K-bytes		       207	     89019
	maximum total M-bytes		         1	        90
 
 
                                     CITATION
                                     --------
                Please cite the following reference when publishing
                           results obtained with NWChem:
 
          E. Apra, E. J. Bylaska, W. A. de Jong, N. Govind, K. Kowalski,
       T. P. Straatsma, M. Valiev, H. J. J. van Dam, Y. Alexeev, J. Anchell,
       V. Anisimov, F. W. Aquino, R. Atta-Fynn, J. Autschbach, N. P. Bauman,
     J. C. Becca, D. E. Bernholdt, K. Bhaskaran-Nair, S. Bogatko, P. Borowski,
         J. Boschen, J. Brabec, A. Bruner, E. Cauet, Y. Chen, G. N. Chuev,
      C. J. Cramer, J. Daily, M. J. O. Deegan, T. H. Dunning Jr., M. Dupuis,
   K. G. Dyall, G. I. Fann, S. A. Fischer, A. Fonari, H. Fruchtl, L. Gagliardi,
      J. Garza, N. Gawande, S. Ghosh, K. Glaesemann, A. W. Gotz, J. Hammond,
       V. Helms, E. D. Hermes, K. Hirao, S. Hirata, M. Jacquelin, L. Jensen,
   B. G. Johnson, H. Jonsson, R. A. Kendall, M. Klemm, R. Kobayashi, V. Konkov,
      S. Krishnamoorthy, M. Krishnan, Z. Lin, R. D. Lins, R. J. Littlefield,
      A. J. Logsdail, K. Lopata, W. Ma, A. V. Marenich, J. Martin del Campo,
   D. Mejia-Rodriguez, J. E. Moore, J. M. Mullin, T. Nakajima, D. R. Nascimento,
    J. A. Nichols, P. J. Nichols, J. Nieplocha, A. Otero-de-la-Roza, B. Palmer,
    A. Panyala, T. Pirojsirikul, B. Peng, R. Peverati, J. Pittner, L. Pollack,
   R. M. Richard, P. Sadayappan, G. C. Schatz, W. A. Shelton, D. W. Silverstein,
   D. M. A. Smith, T. A. Soares, D. Song, M. Swart, H. L. Taylor, G. S. Thomas,
            V. Tipparaju, D. G. Truhlar, K. Tsemekhman, T. Van Voorhis,
      A. Vazquez-Mayagoitia, P. Verma, O. Villa, A. Vishnu, K. D. Vogiatzis,
        D. Wang, J. H. Weare, M. J. Williamson, T. L. Windus, K. Wolinski,
        A. T. Wong, Q. Wu, C. Yang, Q. Yu, M. Zacharias, Z. Zhang, Y. Zhao,
                                and R. J. Harrison
                        "NWChem: Past, present, and future
                         J. Chem. Phys. 152, 184102 (2020)
                               doi:10.1063/5.0004997
 
                                      AUTHORS
                                      -------
  E. Apra, E. J. Bylaska, N. Govind, K. Kowalski, M. Valiev, D. Mejia-Rodriguez,
       A. Kunitsa, N. P. Bauman, A. Panyala, W. A. de Jong, T. P. Straatsma,
   H. J. J. van Dam, D. Wang, T. L. Windus, J. Hammond, J. Autschbach, A. Woods,
    K. Bhaskaran-Nair, J. Brabec, K. Lopata, S. A. Fischer, S. Krishnamoorthy,
     M. Jacquelin, W. Ma, M. Klemm, O. Villa, Y. Chen, V. Anisimov, F. Aquino,
     S. Hirata, M. T. Hackler, E. Hermes, L. Jensen, J. E. Moore, J. C. Becca,
      V. Konjkov, T. Risthaus, M. Malagoli, A. Marenich, A. Otero-de-la-Roza,
        J. Mullin, P. Nichols, R. Peverati, J. Pittner, Y. Zhao, P.-D. Fan,
        A. Fonari, M. J. Williamson, R. J. Harrison, J. R. Rehr, M. Dupuis,
     D. Silverstein, D. M. A. Smith, J. Nieplocha, V. Tipparaju, M. Krishnan,
     B. E. Van Kuiken, A. Vazquez-Mayagoitia, M. Swart, Q. Wu, T. Van Voorhis,
     A. A. Auer, M. Nooijen, L. D. Crosby, E. Brown, G. Cisneros, G. I. Fann,
   H. Fruchtl, J. Garza, K. Hirao, R. A. Kendall, J. A. Nichols, K. Tsemekhman,
    K. Wolinski, J. Anchell, D. E. Bernholdt, P. Borowski, T. Clark, D. Clerc,
   H. Dachsel, M. J. O. Deegan, K. Dyall, D. Elwood, E. Glendening, M. Gutowski,
   A. C. Hess, J. Jaffe, B. G. Johnson, J. Ju, R. Kobayashi, R. Kutteh, Z. Lin,
   R. Littlefield, X. Long, B. Meng, T. Nakajima, S. Niu, L. Pollack, M. Rosing,
   K. Glaesemann, G. Sandrone, M. Stave, H. Taylor, G. Thomas, J. H. van Lenthe,
                               A. T. Wong, Z. Zhang.

 Total times  cpu:       25.2s     wall:       28.9s
